4
Lattice="3.128588 0.0 0.0 -1.5642939988088433 2.709436998432005 0.0 0.0 0.0 5.016955" Properties=species:S:1:pos:R:3:spacegroup_kinds:I:1:momenta:R:3:forces:R:3 spacegroup="P 1" unit_cell=conventional occupancy="_JSON {\"0\": {\"Al\": 1}, \"1\": {\"Al\": 1}, \"2\": {\"N\": 1}, \"3\": {\"N\": 1}}" energy=-29.623741149902344 free_energy=-29.623741149902344 stress="0.004300151951611042 -0.008672734722495079 0.0028819001745432615 -0.008672734722495079 -0.006943664979189634 -0.00443442864343524 0.0028819001745432615 -0.00443442864343524 -0.014839195646345615" pbc="T T T"
Al       1.54321202       0.89379623       2.53645990        0      -0.00705388      -0.41529090       0.79444943      -0.25250176       0.39302835      -0.87834370
Al       0.03580901       1.79893955       4.98957809        1       0.09337969      -0.29525098      -0.61191982      -0.16600923       0.14057845       0.62745112
N        1.59619760       0.90645091       4.40111847        2      -0.02189874       1.09350633       0.27120880      -0.08900027      -0.09593530       0.34911257
N       -0.05911261       1.83464208       1.91219261        3      -0.06442710      -0.38296445      -0.45373839       0.50751126      -0.43767160      -0.09822011
