4
Lattice="3.128588 0.0 0.0 -1.5642939988088433 2.709436998432005 0.0 0.0 0.0 5.016955" Properties=species:S:1:pos:R:3:spacegroup_kinds:I:1:momenta:R:3:forces:R:3 spacegroup="P 1" unit_cell=conventional occupancy="_JSON {\"0\": {\"Al\": 1}, \"1\": {\"Al\": 1}, \"2\": {\"N\": 1}, \"3\": {\"N\": 1}}" energy=-29.673717498779297 free_energy=-29.673717498779297 stress="-0.0022253654897212982 -1.2799778232874814e-06 -4.327241232005008e-09 -1.2799778232874814e-06 -0.0022274276707321405 -5.515393652899547e-08 -4.327241232005008e-09 -5.515393652899547e-08 -0.005453750025480986" pbc="T T T"
Al       1.56429556       0.90314476       2.50490041        0       0.68448204       0.53670047       0.91071479      -0.00003453       0.00002134       0.00553250
Al      -0.00000156       1.80629224       5.01337791        1       0.31075784       0.39520501      -1.87833745       0.00003429      -0.00001982       0.00552325
N        1.56429556       0.90314476       4.41849749        2      -0.23293981      -0.79739853      -0.40745139      -0.00003648       0.00002071      -0.00553028
N       -0.00000156       1.80629224       1.91001999        3      -0.76230006      -0.13450696       1.37507406       0.00003670      -0.00002216      -0.00552531
4
Lattice="3.128588 0.0 0.0 -1.5642939988088433 2.709436998432005 0.0 0.0 0.0 5.016955" Properties=species:S:1:pos:R:3:spacegroup_kinds:I:1:momenta:R:3:forces:R:3 spacegroup="P 1" unit_cell=conventional occupancy="_JSON {\"0\": {\"Al\": 1}, \"1\": {\"Al\": 1}, \"2\": {\"N\": 1}, \"3\": {\"N\": 1}}" energy=-29.43359375 free_energy=-29.43359375 stress="-0.013773534446954727 -0.016446370631456375 0.012948854826390743 -0.016446370631456375 -0.023968800902366638 0.00996969174593687 0.012948854826390743 0.00996969174593687 -0.012059414759278297" pbc="T T T"
Al       1.60246141       0.92231284       2.54150849        0       0.57498200      -0.13491971       1.02882482      -1.31301343      -0.49033368      -0.87831414
Al       0.00328788       1.81111139       4.94718774        1      -0.44725807       0.00118045      -1.07867319      -0.30154425      -0.59423202       1.18012094
N        1.53678588       0.85870780       4.38099594        2       0.14052039      -0.46066721       0.20203864       0.28491002       0.67984450       1.25553417
N       -0.05228245       1.80432670       2.00436659        3      -0.26824434       0.59440646      -0.15219028       1.32964742       0.40472135      -1.55734110
4
Lattice="3.128588 0.0 0.0 -1.5642939988088433 2.709436998432005 0.0 0.0 0.0 5.016955" Properties=species:S:1:pos:R:3:spacegroup_kinds:I:1:momenta:R:3:forces:R:3 spacegroup="P 1" unit_cell=conventional occupancy="_JSON {\"0\": {\"Al\": 1}, \"1\": {\"Al\": 1}, \"2\": {\"N\": 1}, \"3\": {\"N\": 1}}" energy=-29.567256927490234 free_energy=-29.567256927490234 stress="0.01291574165225029 0.0017025776905938983 0.0035793923307210207 0.0017025776905938983 -0.025856805965304375 -0.00536914449185133 0.0035793923307210207 -0.00536914449185133 -0.011435147374868393" pbc="T T T"
Al       1.59598186       0.90138487       2.55101266        0      -0.85003958      -0.64755174      -0.41676282      -0.33522630       0.74370241      -1.26921237
Al      -0.01311800       1.79082858       4.96769657        1      -0.24557021      -0.74327778       1.65595772      -0.18280277      -0.17026673       1.21499538
N        1.52960408       0.86779351       4.41996340        2       0.16413059       0.60763573       0.63654569       0.31887636       0.39321297      -0.09056976
N       -0.00060094       1.87475187       1.90756520        3       0.93147916       0.78319382      -1.87574061       0.19915265      -0.96664846       0.14478637
4
Lattice="3.128588 0.0 0.0 -1.5642939988088433 2.709436998432005 0.0 0.0 0.0 5.016955" Properties=species:S:1:pos:R:3:spacegroup_kinds:I:1:momenta:R:3:forces:R:3 spacegroup="P 1" unit_cell=conventional occupancy="_JSON {\"0\": {\"Al\": 1}, \"1\": {\"Al\": 1}, \"2\": {\"N\": 1}, \"3\": {\"N\": 1}}" energy=-29.406274795532227 free_energy=-29.406274795532227 stress="0.010688562877476215 0.01649818941950798 -0.008164020255208015 0.01649818941950798 -0.009423134848475456 -0.015553961507976055 -0.008164020255208015 -0.015553961507976055 -0.06125413998961449" pbc="T T T"
Al       1.53423929       0.87298461       2.51007453        0      -1.60925386       0.09619186      -1.03262306       0.74608845       1.00298572       0.03482391
Al      -0.01349003       1.78470222       5.05709165        1       0.21561248      -0.04339820       1.72443283       0.02271236       0.40732980      -1.66437006
N        1.55208973       0.92225132       4.42203506        2       0.38659382       0.63935836      -0.93002928       0.04495785      -0.39009723      -0.56986117
N        0.09667396       1.88681817       1.81230438        3       1.00704752      -0.69215198       0.23821953      -0.81375855      -1.02021813       2.19940710
4
Lattice="3.128588 0.0 0.0 -1.5642939988088433 2.709436998432005 0.0 0.0 0.0 5.016955" Properties=species:S:1:pos:R:3:spacegroup_kinds:I:1:momenta:R:3:forces:R:3 spacegroup="P 1" unit_cell=conventional occupancy="_JSON {\"0\": {\"Al\": 1}, \"1\": {\"Al\": 1}, \"2\": {\"N\": 1}, \"3\": {\"N\": 1}}" energy=-29.201906204223633 free_energy=-29.201906204223633 stress="-0.026440750807523727 0.038155533373355865 -0.031382642686367035 0.038155533373355865 -0.004877177067101002 0.0015438051195815206 -0.031382642686367035 0.0015438051195815206 -0.051819682121276855" pbc="T T T"
Al       1.49382403       0.87740192       2.48150489        0      -0.08661655      -0.02748812       0.25595536       2.48428297      -0.46186802       1.22611916
Al      -0.02076736       1.79337851       5.08843296        1       0.00716729       0.60209051      -1.27068249       0.64723051       0.57433438      -2.36004138
N        1.60157221       0.96971685       4.33361319        2       0.49437288       0.53651051      -0.17473361      -0.53882295      -0.70145315       1.74608922
N        0.13924905       1.81421455       1.89535165        3      -0.41492360      -1.11111286       1.18946079      -2.59269071       0.58898652      -0.61216700
4
Lattice="3.128588 0.0 0.0 -1.5642939988088433 2.709436998432005 0.0 0.0 0.0 5.016955" Properties=species:S:1:pos:R:3:spacegroup_kinds:I:1:momenta:R:3:forces:R:3 spacegroup="P 1" unit_cell=conventional occupancy="_JSON {\"0\": {\"Al\": 1}, \"1\": {\"Al\": 1}, \"2\": {\"N\": 1}, \"3\": {\"N\": 1}}" energy=-29.574626922607422 free_energy=-29.574626922607422 stress="-0.023618023842573166 -0.014321236871182919 -0.011127956211566925 -0.014321236871182919 0.015029992908239365 -0.0028546599205583334 -0.011127956211566925 -0.0028546599205583334 -0.014440439641475677" pbc="T T T"
Al       1.53421961       0.88369269       2.53780581        0       1.55943996       0.36820886       1.55971011       0.29264352      -0.24000289      -0.91367638
Al      -0.00048007       1.82107762       4.98837343        1       1.01688555       0.86374291      -2.47525478       0.94369471       0.52251607       0.78486300
N        1.63583967       0.96584652       4.40663186        2      -0.31021875      -0.52489294       1.27117385      -1.15103650      -0.78907275       0.05687826
N       -0.01177521       1.75252282       1.90648728        3      -2.26610673      -0.70705881      -0.35562912      -0.08530179       0.50655973       0.07193559
4
Lattice="3.128588 0.0 0.0 -1.5642939988088433 2.709436998432005 0.0 0.0 0.0 5.016955" Properties=species:S:1:pos:R:3:spacegroup_kinds:I:1:momenta:R:3:forces:R:3 spacegroup="P 1" unit_cell=conventional occupancy="_JSON {\"0\": {\"Al\": 1}, \"1\": {\"Al\": 1}, \"2\": {\"N\": 1}, \"3\": {\"N\": 1}}" energy=-29.372068405151367 free_energy=-29.372068405151367 stress="-0.005629398860037327 -0.018719634041190147 0.015849409624934196 -0.018719634041190147 -0.03227269649505615 0.017212213948369026 0.015849409624934196 0.017212213948369026 -0.007298273034393787" pbc="T T T"
Al       1.57072833       0.88046442       2.56331976        0      -0.00039219      -0.37629496      -0.57844076      -1.34386456      -0.44065750      -1.50707650
Al       0.05055071       1.86456079       4.94968570        1       0.52727018       0.77034186       1.04960231      -0.49128765      -1.36434054       1.82584703
N        1.58204802       0.88176661       4.44992391        2      -0.27832252      -1.02263421      -0.55459321       0.15003391       1.16376317      -0.85894895
N       -0.12661083       1.75915457       1.88869866        3      -0.24855543       0.62858729       0.08343178       1.68511856       0.64123470       0.54017854
4
Lattice="3.128588 0.0 0.0 -1.5642939988088433 2.709436998432005 0.0 0.0 0.0 5.016955" Properties=species:S:1:pos:R:3:spacegroup_kinds:I:1:momenta:R:3:forces:R:3 spacegroup="P 1" unit_cell=conventional occupancy="_JSON {\"0\": {\"Al\": 1}, \"1\": {\"Al\": 1}, \"2\": {\"N\": 1}, \"3\": {\"N\": 1}}" energy=-29.596923828125 free_energy=-29.596923828125 stress="0.01597629114985466 -0.0045061614364385605 0.006018671672791243 -0.0045061614364385605 -0.02549944445490837 -0.004597092978656292 0.006018671672791243 -0.004597092978656292 -0.010014071129262447" pbc="T T T"
Al       1.53284807       0.86390068       2.51395076        0      -1.59464488      -0.16469652      -1.74991353      -0.27820620       0.89915836      -0.15420499
Al       0.06317841       1.83227866       5.00948381        1       0.38440026      -1.80666566       1.59449957      -0.58708757      -0.41271707       0.16725169
N        1.58572478       0.89623784       4.41422574        2       0.14193155       1.12964904      -0.09119163       0.25704396       0.38076743       0.00228072
N       -0.08152107       1.83862419       1.90381446        3       1.06831304       0.84171315       0.24660574       0.60824972      -0.86720878      -0.01532728
4
Lattice="3.128588 0.0 0.0 -1.5642939988088433 2.709436998432005 0.0 0.0 0.0 5.016955" Properties=species:S:1:pos:R:3:spacegroup_kinds:I:1:momenta:R:3:forces:R:3 spacegroup="P 1" unit_cell=conventional occupancy="_JSON {\"0\": {\"Al\": 1}, \"1\": {\"Al\": 1}, \"2\": {\"N\": 1}, \"3\": {\"N\": 1}}" energy=-29.46255111694336 free_energy=-29.46255111694336 stress="-0.005696903448551893 0.01084949728101492 -0.003906614612787962 0.01084949728101492 -0.01913376897573471 -0.012703160755336285 -0.003906614612787962 -0.012703160755336285 -0.011871515773236752" pbc="T T T"
Al       1.48347331       0.88264396       2.44527927        0      -0.30454528       1.01149502      -0.60004569       0.88393366       0.95768350       1.70776963
Al       0.06164411       1.77681260       5.07306073        1      -0.86715241      -0.75617426       0.43048906      -0.30080611       0.71655345      -1.72279978
N        1.61717710       0.94947182       4.40498428        2       0.38645854       0.04830121       0.18623353      -0.07233992      -0.67486036       0.48910779
N       -0.01486934       1.85626147       1.92266702        3       0.78523915      -0.30362195      -0.01667675      -0.51078761      -0.99937648      -0.47407734
4
Lattice="3.128588 0.0 0.0 -1.5642939988088433 2.709436998432005 0.0 0.0 0.0 5.016955" Properties=species:S:1:pos:R:3:spacegroup_kinds:I:1:momenta:R:3:forces:R:3 spacegroup="P 1" unit_cell=conventional occupancy="_JSON {\"0\": {\"Al\": 1}, \"1\": {\"Al\": 1}, \"2\": {\"N\": 1}, \"3\": {\"N\": 1}}" energy=-29.51875114440918 free_energy=-29.51875114440918 stress="-0.023370850831270218 0.006539973430335522 -0.016098255291581154 0.006539973430335522 0.006697553209960461 -0.00048236388829536736 -0.016098255291581154 -0.00048236388829536736 -0.022161295637488365" pbc="T T T"
Al       1.50607638       0.94974319       2.46463696        0       1.15921305       0.62635203       1.50689976       1.24247527      -0.60704803       1.15697515
Al       0.01335471       1.75088040       5.06242874        1      -0.91112020       0.14825237      -0.88962657       0.51474679       0.69610471      -1.43089068
N        1.62637957       0.90489620       4.42127858        2      -0.14223532      -0.64065030       0.21498348      -0.71771866      -0.51824141      -0.07984845
N        0.02538009       1.82158366       1.88963030        3      -0.10585755      -0.13395410      -0.83225649      -1.03950357       0.42918462       0.35376370
4
Lattice="3.128588 0.0 0.0 -1.5642939988088433 2.709436998432005 0.0 0.0 0.0 5.016955" Properties=species:S:1:pos:R:3:spacegroup_kinds:I:1:momenta:R:3:forces:R:3 spacegroup="P 1" unit_cell=conventional occupancy="_JSON {\"0\": {\"Al\": 1}, \"1\": {\"Al\": 1}, \"2\": {\"N\": 1}, \"3\": {\"N\": 1}}" energy=-29.60500717163086 free_energy=-29.60500717163086 stress="0.0015957378782331944 -0.006785804405808449 -0.0030954722315073013 -0.006785804405808449 0.001780501683242619 0.0017243365291506052 -0.0030954722315073013 0.0017243365291506052 -0.023113751783967018" pbc="T T T"
Al       1.56693923       0.93861030       2.54470912        0       1.44875322      -0.98943837       1.48437432      -0.01659413      -0.29131722      -1.20300746
Al      -0.01304569       1.78057345       4.99752452        1       0.01689783       1.11024957      -1.70729964       0.38438851       0.02358098       0.50760418
N        1.58384203       0.87104972       4.42155573        2      -0.67927460      -0.02704931      -0.19037180      -0.39237022       0.15178056      -0.39792427
N        0.00122214       1.81989280       1.85992054        3      -0.78637645      -0.09376189       0.41329727       0.02457583       0.11595561       1.09332800
4
Lattice="3.128588 0.0 0.0 -1.5642939988088433 2.709436998432005 0.0 0.0 0.0 5.016955" Properties=species:S:1:pos:R:3:spacegroup_kinds:I:1:momenta:R:3:forces:R:3 spacegroup="P 1" unit_cell=conventional occupancy="_JSON {\"0\": {\"Al\": 1}, \"1\": {\"Al\": 1}, \"2\": {\"N\": 1}, \"3\": {\"N\": 1}}" energy=-29.470205307006836 free_energy=-29.470205307006836 stress="0.0032031256705522537 -0.01780145801603794 0.011838392354547977 -0.01780145801603794 -0.04134918376803398 0.007359928917139769 0.011838392354547977 0.007359928917139769 -0.005160368513315916" pbc="T T T"
Al       1.62755627       0.89950079       2.54516755        0       1.04970798      -0.99981844      -0.80202917      -1.41065085       0.15933262      -0.91778922
Al      -0.00757057       1.81703572       4.95606286        1      -0.03757961       0.11959894      -0.16512755      -0.26242581      -0.84351695       1.41445816
N        1.52756233       0.85151203       4.42065484        2      -0.42752213       0.29023003      -0.07965745       0.31765836       0.98894703      -0.00115479
N       -0.06966664       1.84442113       1.93994533        3      -0.58460623       0.58998947       1.04681432       1.35541832      -0.30476284      -0.49551389
4
Lattice="3.128588 0.0 0.0 -1.5642939988088433 2.709436998432005 0.0 0.0 0.0 5.016955" Properties=species:S:1:pos:R:3:spacegroup_kinds:I:1:momenta:R:3:forces:R:3 spacegroup="P 1" unit_cell=conventional occupancy="_JSON {\"0\": {\"Al\": 1}, \"1\": {\"Al\": 1}, \"2\": {\"N\": 1}, \"3\": {\"N\": 1}}" energy=-29.45298957824707 free_energy=-29.45298957824707 stress="-0.013224988244473934 -0.02375015988945961 0.00791145022958517 -0.02375015988945961 -0.04793180897831917 -0.0073332712054252625 0.00791145022958517 -0.0073332712054252625 0.02863287553191185" pbc="T T T"
Al       1.63184039       0.85684031       2.46693551        0      -0.97589044      -0.55899541      -1.34838408      -1.39010096       1.11025977       1.17304158
Al      -0.02377744       1.82170281       4.98999602        1      -0.28018810       0.45883513       1.28013538      -0.08532385       0.08283421       0.34697518
N        1.52792698       0.92957747       4.44479004        2       0.11446463       0.97873237       0.08012582       0.22035939      -0.17398675       0.05598941
N       -0.04718870       1.83921500       2.00086010        3       1.14161389      -0.87857209      -0.01187694       1.25506520      -1.01910758      -1.57600594
4
Lattice="3.128588 0.0 0.0 -1.5642939988088433 2.709436998432005 0.0 0.0 0.0 5.016955" Properties=species:S:1:pos:R:3:spacegroup_kinds:I:1:momenta:R:3:forces:R:3 spacegroup="P 1" unit_cell=conventional occupancy="_JSON {\"0\": {\"Al\": 1}, \"1\": {\"Al\": 1}, \"2\": {\"N\": 1}, \"3\": {\"N\": 1}}" energy=-29.53631591796875 free_energy=-29.53631591796875 stress="-0.019857488572597504 0.013829036615788937 -0.005717387888580561 0.013829036615788937 -0.003164066467434168 -0.0016709885094314814 -0.005717387888580561 -0.0016709885094314814 -0.006260544992983341" pbc="T T T"
Al       1.56291507       0.86348347       2.43836899        0      -1.44558852       0.38889044       0.34074985       0.67285991       0.11609302       1.45909691
Al      -0.01834141       1.83613135       5.05736571        1       0.19731496      -0.00921587       1.04742102       0.06595174       0.15003523      -1.19267392
N        1.54726696       0.95741148       4.47045642        2      -0.01023977       0.05685081       0.14844044       0.09761512      -0.44420844      -0.65174878
N        0.05576966       1.77068666       1.90062729        3       1.25851331      -0.43652535      -1.53661120      -0.83642673       0.17808016       0.38532567
4
Lattice="3.128588 0.0 0.0 -1.5642939988088433 2.709436998432005 0.0 0.0 0.0 5.016955" Properties=species:S:1:pos:R:3:spacegroup_kinds:I:1:momenta:R:3:forces:R:3 spacegroup="P 1" unit_cell=conventional occupancy="_JSON {\"0\": {\"Al\": 1}, \"1\": {\"Al\": 1}, \"2\": {\"N\": 1}, \"3\": {\"N\": 1}}" energy=-29.531002044677734 free_energy=-29.531002044677734 stress="-0.018293915316462517 0.01570778340101242 -0.011607768014073372 0.01570778340101242 0.0031477652955800295 0.004605748690664768 -0.011607768014073372 0.004605748690664768 -0.01725885272026062" pbc="T T T"
Al       1.54701073       0.87273543       2.46070918        0       0.71855691      -0.11584352       0.49435360       1.07476592      -0.28505671       1.06925881
Al      -0.01761628       1.84389393       5.05391121        1       0.19346395       0.17720453      -0.69190145       0.23187773      -0.07942048      -1.16825485
N        1.56395353       0.94331123       4.45961400        2       0.32487454      -0.12409442      -0.51346211      -0.11547084      -0.20503305      -0.72920156
N        0.06831352       1.75176770       1.87546339        3      -1.23689538       0.06273342       0.71101009      -1.19117284       0.56951022       0.82819772
4
Lattice="3.128588 0.0 0.0 -1.5642939988088433 2.709436998432005 0.0 0.0 0.0 5.016955" Properties=species:S:1:pos:R:3:spacegroup_kinds:I:1:momenta:R:3:forces:R:3 spacegroup="P 1" unit_cell=conventional occupancy="_JSON {\"0\": {\"Al\": 1}, \"1\": {\"Al\": 1}, \"2\": {\"N\": 1}, \"3\": {\"N\": 1}}" energy=-29.61321449279785 free_energy=-29.61321449279785 stress="-0.008381590247154236 -0.004276657477021217 0.0054928008466959 -0.004276657477021217 -0.013937003910541534 0.0014804825186729431 0.0054928008466959 0.0014804825186729431 0.012475443072617054" pbc="T T T"
Al       1.57767908       0.87033378       2.48321565        0       0.42145960      -0.10085952       0.75449357      -0.50598651       0.14215325       0.64867723
Al       0.00878682       1.84488740       5.00616580        1       0.94842540       0.04829718      -0.67234711      -0.28190869      -0.37569833       0.05942775
N        1.54733737       0.91884311       4.41695261        2      -0.50233602      -0.06173884      -0.86681606       0.26756582       0.16352621       0.34766731
N       -0.02491942       1.77881442       1.96659671        3      -0.86754898       0.11430119       0.78466970       0.52032948       0.07001882      -1.05577195
4
Lattice="3.128588 0.0 0.0 -1.5642939988088433 2.709436998432005 0.0 0.0 0.0 5.016955" Properties=species:S:1:pos:R:3:spacegroup_kinds:I:1:momenta:R:3:forces:R:3 spacegroup="P 1" unit_cell=conventional occupancy="_JSON {\"0\": {\"Al\": 1}, \"1\": {\"Al\": 1}, \"2\": {\"N\": 1}, \"3\": {\"N\": 1}}" energy=-29.557838439941406 free_energy=-29.557838439941406 stress="-0.016363680362701416 -0.0029473467729985714 0.012903634458780289 -0.0029473467729985714 -0.006207672879099846 0.0015375310322269797 0.012903634458780289 0.0015375310322269797 -0.002714692149311304" pbc="T T T"
Al       1.59068814       0.88023430       2.52274589        0      -0.41625609       0.17887021       0.33160883      -0.90884238      -0.14030418      -0.36868167
Al       0.01872293       1.83477380       4.97781992        1       0.14973997      -0.20763028      -0.17578592      -0.72829801      -0.10046336       0.72652763
N        1.52039168       0.92489992       4.39464380        2       0.19754360       0.25939884       0.47781836       0.72476143      -0.09605019       0.71574378
N       -0.04216867       1.77342024       1.96745701        3       0.06897251      -0.23063876      -0.63364120       0.91237915       0.33681756      -1.07358956
4
Lattice="3.128588 0.0 0.0 -1.5642939988088433 2.709436998432005 0.0 0.0 0.0 5.016955" Properties=species:S:1:pos:R:3:spacegroup_kinds:I:1:momenta:R:3:forces:R:3 spacegroup="P 1" unit_cell=conventional occupancy="_JSON {\"0\": {\"Al\": 1}, \"1\": {\"Al\": 1}, \"2\": {\"N\": 1}, \"3\": {\"N\": 1}}" energy=-29.62111473083496 free_energy=-29.62111473083496 stress="-0.02150077559053898 0.005276428535580635 -0.003267458640038967 0.005276428535580635 0.010657860897481441 0.0019249488832429051 -0.003267458640038967 0.0019249488832429051 -0.0015899887075647712" pbc="T T T"
Al       1.54767649       0.89587761       2.50832863        0      -0.85810052       0.46896470      -1.00003080       0.39160520      -0.39029333      -0.15032671
Al       0.00665805       1.82067518       5.00342493        1      -0.72966960      -0.11082680       1.46536783      -0.00949883       0.22697023       0.34863138
N        1.57185928       0.94293296       4.45440730        2       0.62349889      -0.37686486       0.64593166      -0.01969854      -0.43335328      -0.83890140
N        0.01256031       1.75229421       1.88600535        3       0.96427124       0.01872697      -1.11126862      -0.36240786       0.59667623       0.64059740
4
Lattice="3.128588 0.0 0.0 -1.5642939988088433 2.709436998432005 0.0 0.0 0.0 5.016955" Properties=species:S:1:pos:R:3:spacegroup_kinds:I:1:momenta:R:3:forces:R:3 spacegroup="P 1" unit_cell=conventional occupancy="_JSON {\"0\": {\"Al\": 1}, \"1\": {\"Al\": 1}, \"2\": {\"N\": 1}, \"3\": {\"N\": 1}}" energy=-29.520856857299805 free_energy=-29.520856857299805 stress="-0.014047411270439625 0.011821006424725056 -0.014255627058446407 0.011821006424725056 -0.005614591296762228 0.009361506439745426 -0.014255627058446407 0.009361506439745426 -0.019571218639612198" pbc="T T T"
Al       1.52999425       0.91403915       2.46474575        0       0.09545056      -0.23101233      -1.18071381       1.21875620      -0.63577145       0.99290359
Al      -0.00890653       1.82180732       5.05208967        1       0.31216865      -0.10747520       0.45537799       0.39472771      -0.38378635      -1.12710619
N        1.59437714       0.88605558       4.45928989        2      -0.04798951      -0.53350261      -0.20523365      -0.40810597       0.35579035      -0.79021430
N        0.05384451       1.77207219       1.87145004        3      -0.35962969       0.87199015       0.93056956      -1.20537817       0.66376746       0.92441702
4
Lattice="3.128588 0.0 0.0 -1.5642939988088433 2.709436998432005 0.0 0.0 0.0 5.016955" Properties=species:S:1:pos:R:3:spacegroup_kinds:I:1:momenta:R:3:forces:R:3 spacegroup="P 1" unit_cell=conventional occupancy="_JSON {\"0\": {\"Al\": 1}, \"1\": {\"Al\": 1}, \"2\": {\"N\": 1}, \"3\": {\"N\": 1}}" energy=-29.61878776550293 free_energy=-29.61878776550293 stress="0.010117701254785061 -0.0018219150369986892 -0.0018730023875832558 -0.0018219150369986892 -0.0247831791639328 0.004591094329953194 -0.0018730023875832558 0.004591094329953194 2.6360590709373355e-05" pbc="T T T"
Al       1.53818030       0.90928016       2.47247636        0       0.23228554      -0.27447272       1.41733400       0.21200852       0.18702167       0.85530722
Al       0.01802691       1.81430743       5.03506519        1       0.60360853      -0.42930197      -1.11140775       0.03760090      -0.69444072      -0.55142570
N        1.59518019       0.85128049       4.42414644        2       0.09084581       0.02420606      -0.77345513      -0.19470240       0.84070516       0.01228109
N       -0.01452983       1.83034437       1.92467359        3      -0.92673990       0.67956864       0.46752897      -0.05490725      -0.33328605      -0.31616259
4
Lattice="3.128588 0.0 0.0 -1.5642939988088433 2.709436998432005 0.0 0.0 0.0 5.016955" Properties=species:S:1:pos:R:3:spacegroup_kinds:I:1:momenta:R:3:forces:R:3 spacegroup="P 1" unit_cell=conventional occupancy="_JSON {\"0\": {\"Al\": 1}, \"1\": {\"Al\": 1}, \"2\": {\"N\": 1}, \"3\": {\"N\": 1}}" energy=-29.623741149902344 free_energy=-29.623741149902344 stress="0.004300151951611042 -0.008672734722495079 0.0028819001745432615 -0.008672734722495079 -0.006943664979189634 -0.00443442864343524 0.0028819001745432615 -0.00443442864343524 -0.014839195646345615" pbc="T T T"
Al       1.54321202       0.89379623       2.53645990        0      -0.00705388      -0.41529090       0.79444943      -0.25250176       0.39302835      -0.87834370
Al       0.03580901       1.79893955       4.98957809        1       0.09337969      -0.29525098      -0.61191982      -0.16600923       0.14057845       0.62745112
N        1.59619760       0.90645091       4.40111847        2      -0.02189874       1.09350633       0.27120880      -0.08900027      -0.09593530       0.34911257
N       -0.05911261       1.83464208       1.91219261        3      -0.06442710      -0.38296445      -0.45373839       0.50751126      -0.43767160      -0.09822011
