4
Lattice="3.128588 0.0 0.0 -1.5642939988088433 2.709436998432005 0.0 0.0 0.0 5.016955" Properties=species:S:1:pos:R:3:spacegroup_kinds:I:1:forces:R:3 spacegroup="P 1" unit_cell=conventional occupancy="_JSON {\"0\": {\"Al\": 1}, \"1\": {\"Al\": 1}, \"2\": {\"N\": 1}, \"3\": {\"N\": 1}}" energy=-29.673717498779297 free_energy=-29.673717498779297 stress="-0.0022253654897212982 -1.2799778232874814e-06 -4.327241232005008e-09 -1.2799778232874814e-06 -0.0022274276707321405 -5.515393652899547e-08 -4.327241232005008e-09 -5.515393652899547e-08 -0.005453750025480986" pbc="T T T"
Al       1.56429556       0.90314476       2.50490041        0      -0.00003453       0.00002134       0.00553250
Al      -0.00000156       1.80629224       5.01337791        1       0.00003429      -0.00001982       0.00552325
N        1.56429556       0.90314476       4.41849749        2      -0.00003648       0.00002071      -0.00553028
N       -0.00000156       1.80629224       1.91001999        3       0.00003670      -0.00002216      -0.00552531
