4
Lattice="3.128588 0.0 0.0 -1.5642939988088433 2.709436998432005 0.0 0.0 0.0 5.016955" Properties=species:S:1:pos:R:3:spacegroup_kinds:I:1:momenta:R:3:forces:R:3 spacegroup="P 1" unit_cell=conventional occupancy="_JSON {\"0\": {\"Al\": 1}, \"1\": {\"Al\": 1}, \"2\": {\"N\": 1}, \"3\": {\"N\": 1}}" energy=-29.623741149902344 free_energy=-29.623741149902344 stress="0.004300275817513466 -0.00867273099720478 0.0028819639701396227 -0.00867273099720478 -0.006943810731172562 -0.004434513859450817 0.0028819639701396227 -0.004434513859450817 -0.01483907550573349" pbc="T T T"
Al       1.54321206       0.89379623       2.53645986        0      -0.00705402      -0.41529088       0.79444987      -0.25250387       0.39302987      -0.87834376
Al       0.03580898       1.79893952       4.98957808        1       0.09337924      -0.29525098      -0.61192046      -0.16600907       0.14058083       0.62744999
N        1.59619755       0.90645095       4.40111849        2      -0.02189820       1.09350639       0.27120904      -0.08899973      -0.09593746       0.34911293
N       -0.05911262       1.83464206       1.91219254        3      -0.06442710      -0.38296455      -0.45373846       0.50751269      -0.43767333      -0.09821977
