4
Lattice="3.128588 0.0 0.0 -1.5642939988088433 2.709436998432005 0.0 0.0 0.0 5.016955" Properties=species:S:1:pos:R:3:spacegroup_kinds:I:1:momenta:R:3:forces:R:3 spacegroup="P 1" unit_cell=conventional occupancy="_JSON {\"0\": {\"Al\": 1}, \"1\": {\"Al\": 1}, \"2\": {\"N\": 1}, \"3\": {\"N\": 1}}" energy=-29.673717498779297 free_energy=-29.673717498779297 stress="-0.002225323813036084 -1.362652369607531e-06 -1.5731606239910434e-08 -1.362652369607531e-06 -0.0022274916991591454 -4.63873028877515e-08 -1.5731606239910434e-08 -4.63873028877515e-08 -0.0054536862298846245" pbc="T T T"
Al       1.56429556       0.90314476       2.50490041        0       0.68448204       0.53670047       0.91071479      -0.00003504       0.00002034       0.00553210
Al      -0.00000156       1.80629224       5.01337791        1       0.31075784       0.39520501      -1.87833745       0.00003461      -0.00001998       0.00552379
N        1.56429556       0.90314476       4.41849749        2      -0.23293981      -0.79739853      -0.40745139      -0.00003630       0.00002086      -0.00552962
N       -0.00000156       1.80629224       1.91001999        3      -0.76230006      -0.13450696       1.37507406       0.00003665      -0.00002116      -0.00552592
4
Lattice="3.128588 0.0 0.0 -1.5642939988088433 2.709436998432005 0.0 0.0 0.0 5.016955" Properties=species:S:1:pos:R:3:spacegroup_kinds:I:1:momenta:R:3:forces:R:3 spacegroup="P 1" unit_cell=conventional occupancy="_JSON {\"0\": {\"Al\": 1}, \"1\": {\"Al\": 1}, \"2\": {\"N\": 1}, \"3\": {\"N\": 1}}" energy=-29.43359375 free_energy=-29.43359375 stress="-0.013773506507277489 -0.016446387395262718 0.01294881571084261 -0.016446387395262718 -0.023968849331140518 0.009969744831323624 0.01294881571084261 0.009969744831323624 -0.012059370055794716" pbc="T T T"
Al       1.60246141       0.92231284       2.54150849        0       0.57498204      -0.13491993       1.02882483      -1.31301332      -0.49033484      -0.87831444
Al       0.00328788       1.81111139       4.94718774        1      -0.44725810       0.00118053      -1.07867321      -0.30154231      -0.59423196       1.18011904
N        1.53678588       0.85870780       4.38099594        2       0.14052046      -0.46066728       0.20203865       0.28490832       0.67984450       1.25553739
N       -0.05228245       1.80432671       2.00436659        3      -0.26824444       0.59440670      -0.15219026       1.32964730       0.40472218      -1.55734181
4
Lattice="3.128588 0.0 0.0 -1.5642939988088433 2.709436998432005 0.0 0.0 0.0 5.016955" Properties=species:S:1:pos:R:3:spacegroup_kinds:I:1:momenta:R:3:forces:R:3 spacegroup="P 1" unit_cell=conventional occupancy="_JSON {\"0\": {\"Al\": 1}, \"1\": {\"Al\": 1}, \"2\": {\"N\": 1}, \"3\": {\"N\": 1}}" energy=-29.5672550201416 free_energy=-29.5672550201416 stress="0.012915722094476223 0.001702507957816124 0.003579414449632168 0.001702507957816124 -0.025857098400592804 -0.005369167309254408 0.003579414449632168 -0.005369167309254408 -0.01143538299947977" pbc="T T T"
Al       1.59598186       0.90138486       2.55101266        0      -0.85003970      -0.64755166      -0.41676291      -0.33522803       0.74370366      -1.26921380
Al      -0.01311800       1.79082859       4.96769657        1      -0.24557028      -0.74327781       1.65595773      -0.18280275      -0.17026758       1.21499634
N        1.52960409       0.86779350       4.41996340        2       0.16413075       0.60763566       0.63654570       0.31887674       0.39321363      -0.09056932
N       -0.00060095       1.87475190       1.90756519        3       0.93147920       0.78319385      -1.87574050       0.19915387      -0.96664965       0.14478657
4
Lattice="3.128588 0.0 0.0 -1.5642939988088433 2.709436998432005 0.0 0.0 0.0 5.016955" Properties=species:S:1:pos:R:3:spacegroup_kinds:I:1:momenta:R:3:forces:R:3 spacegroup="P 1" unit_cell=conventional occupancy="_JSON {\"0\": {\"Al\": 1}, \"1\": {\"Al\": 1}, \"2\": {\"N\": 1}, \"3\": {\"N\": 1}}" energy=-29.406272888183594 free_energy=-29.406272888183594 stress="0.010689053684473038 0.01649809628725052 -0.008164066821336746 0.01649809628725052 -0.009423344396054745 -0.015553954988718033 -0.008164066821336746 -0.015553954988718033 -0.06125418469309807" pbc="T T T"
Al       1.53423929       0.87298461       2.51007453        0      -1.60925398       0.09619217      -1.03262320       0.74608797       1.00298619       0.03482446
Al      -0.01349004       1.78470222       5.05709165        1       0.21561237      -0.04339794       1.72443280       0.02271589       0.40732700      -1.66437078
N        1.55208976       0.92225131       4.42203507        2       0.38659393       0.63935813      -0.93002904       0.04495437      -0.39009446      -0.56985903
N        0.09667395       1.88681818       1.81230438        3       1.00704766      -0.69215234       0.23821951      -0.81375825      -1.02021861       2.19940495
4
Lattice="3.128588 0.0 0.0 -1.5642939988088433 2.709436998432005 0.0 0.0 0.0 5.016955" Properties=species:S:1:pos:R:3:spacegroup_kinds:I:1:momenta:R:3:forces:R:3 spacegroup="P 1" unit_cell=conventional occupancy="_JSON {\"0\": {\"Al\": 1}, \"1\": {\"Al\": 1}, \"2\": {\"N\": 1}, \"3\": {\"N\": 1}}" energy=-29.201902389526367 free_energy=-29.201902389526367 stress="-0.026440968737006187 0.03815534710884094 -0.03138265386223793 0.03815534710884094 -0.004877414088696241 0.0015438093105331063 -0.03138265386223793 0.0015438093105331063 -0.05181972682476044" pbc="T T T"
Al       1.49382402       0.87740193       2.48150489        0      -0.08661657      -0.02748787       0.25595548       2.48428345      -0.46186781       1.22612023
Al      -0.02076737       1.79337852       5.08843294        1       0.00716759       0.60209066      -1.27068277       0.64723301       0.57433426      -2.36004138
N        1.60157223       0.96971684       4.33361324        2       0.49437250       0.53651034      -0.17473346      -0.53882658      -0.70145291       1.74608910
N        0.13924906       1.81421453       1.89535165        3      -0.41492352      -1.11111312       1.18946085      -2.59268951       0.58898658      -0.61216819
4
Lattice="3.128588 0.0 0.0 -1.5642939988088433 2.709436998432005 0.0 0.0 0.0 5.016955" Properties=species:S:1:pos:R:3:spacegroup_kinds:I:1:momenta:R:3:forces:R:3 spacegroup="P 1" unit_cell=conventional occupancy="_JSON {\"0\": {\"Al\": 1}, \"1\": {\"Al\": 1}, \"2\": {\"N\": 1}, \"3\": {\"N\": 1}}" energy=-29.574628829956055 free_energy=-29.574628829956055 stress="-0.02361789159476757 -0.0143212815746665 -0.01112794503569603 -0.0143212815746665 0.01503017358481884 -0.0028545905370265245 -0.01112794503569603 -0.0028545905370265245 -0.014440560713410378" pbc="T T T"
Al       1.53421960       0.88369270       2.53780583        0       1.55944038       0.36820862       1.55971042       0.29264376      -0.24000408      -0.91367674
Al      -0.00048006       1.82107764       4.98837341        1       1.01688582       0.86374293      -2.47525448       0.94369602       0.52251565       0.78486174
N        1.63583965       0.96584649       4.40663187        2      -0.31021927      -0.52489279       1.27117334      -1.15103793      -0.78907204       0.05687875
N       -0.01177520       1.75252281       1.90648728        3      -2.26610698      -0.70705880      -0.35562925      -0.08530176       0.50656015       0.07193629
4
Lattice="3.128588 0.0 0.0 -1.5642939988088433 2.709436998432005 0.0 0.0 0.0 5.016955" Properties=species:S:1:pos:R:3:spacegroup_kinds:I:1:momenta:R:3:forces:R:3 spacegroup="P 1" unit_cell=conventional occupancy="_JSON {\"0\": {\"Al\": 1}, \"1\": {\"Al\": 1}, \"2\": {\"N\": 1}, \"3\": {\"N\": 1}}" energy=-29.372072219848633 free_energy=-29.372072219848633 stress="-0.005629723891615868 -0.018719404935836792 0.015849478542804718 -0.018719404935836792 -0.032272934913635254 0.017212262377142906 0.015849478542804718 0.017212262377142906 -0.0072980597615242004" pbc="T T T"
Al       1.57072833       0.88046441       2.56331976        0      -0.00039243      -0.37629537      -0.57844076      -1.34386516      -0.44065800      -1.50707722
Al       0.05055073       1.86456080       4.94968570        1       0.52727007       0.77034158       1.04960231      -0.49129084      -1.36433685       1.82584858
N        1.58204797       0.88176660       4.44992389        2      -0.27832239      -1.02263381      -0.55459330       0.15003845       1.16376078      -0.85894930
N       -0.12661083       1.75915457       1.88869868        3      -0.24855530       0.62858754       0.08343174       1.68511748       0.64123392       0.54017746
4
Lattice="3.128588 0.0 0.0 -1.5642939988088433 2.709436998432005 0.0 0.0 0.0 5.016955" Properties=species:S:1:pos:R:3:spacegroup_kinds:I:1:momenta:R:3:forces:R:3 spacegroup="P 1" unit_cell=conventional occupancy="_JSON {\"0\": {\"Al\": 1}, \"1\": {\"Al\": 1}, \"2\": {\"N\": 1}, \"3\": {\"N\": 1}}" energy=-29.596923828125 free_energy=-29.596923828125 stress="0.01597624458372593 -0.004505883436650038 0.006018641404807568 -0.004505883436650038 -0.025499673560261726 -0.004597160965204239 0.006018641404807568 -0.004597160965204239 -0.01001393049955368" pbc="T T T"
Al       1.53284806       0.86390065       2.51395077        0      -1.59464482      -0.16469616      -1.74991334      -0.27820584       0.89915919      -0.15420558
Al       0.06317842       1.83227865       5.00948381        1       0.38439976      -1.80666610       1.59449910      -0.58708411      -0.41271544       0.16725177
N        1.58572477       0.89623787       4.41422573        2       0.14193207       1.12964941      -0.09119139       0.25704089       0.38076538       0.00228086
N       -0.08152106       1.83862421       1.90381446        3       1.06831298       0.84171277       0.24660562       0.60824907      -0.86720908      -0.01532696
4
Lattice="3.128588 0.0 0.0 -1.5642939988088433 2.709436998432005 0.0 0.0 0.0 5.016955" Properties=species:S:1:pos:R:3:spacegroup_kinds:I:1:momenta:R:3:forces:R:3 spacegroup="P 1" unit_cell=conventional occupancy="_JSON {\"0\": {\"Al\": 1}, \"1\": {\"Al\": 1}, \"2\": {\"N\": 1}, \"3\": {\"N\": 1}}" energy=-29.462553024291992 free_energy=-29.462553024291992 stress="-0.005697157233953476 0.01084936037659645 -0.0039066653698682785 0.01084936037659645 -0.019133824855089188 -0.012703162617981434 -0.0039066653698682785 -0.012703162617981434 -0.011871387250721455" pbc="T T T"
Al       1.48347330       0.88264396       2.44527930        0      -0.30454495       1.01149555      -0.60004549       0.88393116       0.95768380       1.70776975
Al       0.06164409       1.77681259       5.07306071        1      -0.86715250      -0.75617405       0.43048879      -0.30080470       0.71655339      -1.72279882
N        1.61717712       0.94947184       4.40498428        2       0.38645850       0.04830081       0.18623344      -0.07234167      -0.67486024       0.48910642
N       -0.01486934       1.85626146       1.92266701        3       0.78523892      -0.30362235      -0.01667673      -0.51078480      -0.99937695      -0.47407705
4
Lattice="3.128588 0.0 0.0 -1.5642939988088433 2.709436998432005 0.0 0.0 0.0 5.016955" Properties=species:S:1:pos:R:3:spacegroup_kinds:I:1:momenta:R:3:forces:R:3 spacegroup="P 1" unit_cell=conventional occupancy="_JSON {\"0\": {\"Al\": 1}, \"1\": {\"Al\": 1}, \"2\": {\"N\": 1}, \"3\": {\"N\": 1}}" energy=-29.518749237060547 free_energy=-29.518749237060547 stress="-0.023370878770947456 0.0065400549210608006 -0.01609828509390354 0.0065400549210608006 0.006697154138237238 -0.0004824185452889651 -0.01609828509390354 -0.0004824185452889651 -0.022161351516842842" pbc="T T T"
Al       1.50607638       0.94974319       2.46463695        0       1.15921301       0.62635158       1.50689876       1.24247634      -0.60704613       1.15697563
Al       0.01335470       1.75088040       5.06242873        1      -0.91112006       0.14825255      -0.88962603       0.51474690       0.69610685      -1.43089044
N        1.62637958       0.90489619       4.42127858        2      -0.14223548      -0.64065058       0.21498363      -0.71771872      -0.51824301      -0.07984889
N        0.02538009       1.82158365       1.88963030        3      -0.10585746      -0.13395357      -0.83225637      -1.03950453       0.42918217       0.35376388
4
Lattice="3.128588 0.0 0.0 -1.5642939988088433 2.709436998432005 0.0 0.0 0.0 5.016955" Properties=species:S:1:pos:R:3:spacegroup_kinds:I:1:momenta:R:3:forces:R:3 spacegroup="P 1" unit_cell=conventional occupancy="_JSON {\"0\": {\"Al\": 1}, \"1\": {\"Al\": 1}, \"2\": {\"N\": 1}, \"3\": {\"N\": 1}}" energy=-29.605010986328125 free_energy=-29.605010986328125 stress="0.0015960140153765678 -0.006785840727388859 -0.0030954116955399513 -0.006785840727388859 0.0017808587290346622 0.0017245033523067832 -0.0030954116955399513 0.0017245033523067832 -0.023114988580346107" pbc="T T T"
Al       1.56693923       0.93861029       2.54470907        0       1.44875308      -0.98943833       1.48437363      -0.01659369      -0.29131511      -1.20299494
Al      -0.01304570       1.78057345       4.99752454        1       0.01689774       1.11024942      -1.70729933       0.38438803       0.02358371       0.50759304
N        1.58384203       0.87104970       4.42155574        2      -0.67927449      -0.02704926      -0.19037145      -0.39236915       0.15177834      -0.39792597
N        0.00122216       1.81989282       1.85992054        3      -0.78637633      -0.09376186       0.41329722       0.02457500       0.11595331       1.09332824
4
Lattice="3.128588 0.0 0.0 -1.5642939988088433 2.709436998432005 0.0 0.0 0.0 5.016955" Properties=species:S:1:pos:R:3:spacegroup_kinds:I:1:momenta:R:3:forces:R:3 spacegroup="P 1" unit_cell=conventional occupancy="_JSON {\"0\": {\"Al\": 1}, \"1\": {\"Al\": 1}, \"2\": {\"N\": 1}, \"3\": {\"N\": 1}}" energy=-29.470205307006836 free_energy=-29.470205307006836 stress="0.003203206928446889 -0.017801513895392418 0.011838383041322231 -0.017801513895392418 -0.041349057108163834 0.007359950337558985 0.011838383041322231 0.007359950337558985 -0.005160211585462093" pbc="T T T"
Al       1.62755626       0.89950078       2.54516751        0       1.04970819      -0.99981833      -0.80202857      -1.41064799       0.15933186      -0.91779190
Al      -0.00757059       1.81703571       4.95606288        1      -0.03757984       0.11959852      -0.16512795      -0.26242682      -0.84351647       1.41445851
N        1.52756234       0.85151204       4.42065486        2      -0.42752179       0.29023062      -0.07965779       0.31765828       0.98894739      -0.00115436
N       -0.06966663       1.84442115       1.93994533        3      -0.58460657       0.58998920       1.04681434       1.35541618      -0.30476257      -0.49551237
4
Lattice="3.128588 0.0 0.0 -1.5642939988088433 2.709436998432005 0.0 0.0 0.0 5.016955" Properties=species:S:1:pos:R:3:spacegroup_kinds:I:1:momenta:R:3:forces:R:3 spacegroup="P 1" unit_cell=conventional occupancy="_JSON {\"0\": {\"Al\": 1}, \"1\": {\"Al\": 1}, \"2\": {\"N\": 1}, \"3\": {\"N\": 1}}" energy=-29.45298957824707 free_energy=-29.45298957824707 stress="-0.013225235044956207 -0.02375001646578312 0.007911465130746365 -0.02375001646578312 -0.04793171584606171 -0.007333265617489815 0.007911465130746365 -0.007333265617489815 0.02863309532403946" pbc="T T T"
Al       1.63184040       0.85684030       2.46693550        0      -0.97589054      -0.55899537      -1.34838338      -1.39010704       1.11026156       1.17303395
Al      -0.02377745       1.82170280       4.98999600        1      -0.28018817       0.45883519       1.28013469      -0.08532482       0.08283252       0.34697360
N        1.52792700       0.92957750       4.44479004        2       0.11446489       0.97873240       0.08012543       0.22036117      -0.17398591       0.05599284
N       -0.04718872       1.83921499       2.00086010        3       1.14161378      -0.87857224      -0.01187669       1.25507092      -1.01910841      -1.57599998
4
Lattice="3.128588 0.0 0.0 -1.5642939988088433 2.709436998432005 0.0 0.0 0.0 5.016955" Properties=species:S:1:pos:R:3:spacegroup_kinds:I:1:momenta:R:3:forces:R:3 spacegroup="P 1" unit_cell=conventional occupancy="_JSON {\"0\": {\"Al\": 1}, \"1\": {\"Al\": 1}, \"2\": {\"N\": 1}, \"3\": {\"N\": 1}}" energy=-29.53631591796875 free_energy=-29.53631591796875 stress="-0.01985754631459713 0.013828876428306103 -0.005717385094612837 0.013828876428306103 -0.0031640620436519384 -0.001670996891334653 -0.005717385094612837 -0.001670996891334653 -0.006260567344725132" pbc="T T T"
Al       1.56291506       0.86348348       2.43836898        0      -1.44558879       0.38889068       0.34074982       0.67285854       0.11609484       1.45909595
Al      -0.01834141       1.83613134       5.05736570        1       0.19731542      -0.00921556       1.04742114       0.06595222       0.15003638      -1.19267344
N        1.54726697       0.95741148       4.47045639        2      -0.01024017       0.05685032       0.14844024       0.09761392      -0.44420967      -0.65174812
N        0.05576964       1.77068663       1.90062729        3       1.25851351      -0.43652543      -1.53661114      -0.83642447       0.17807817       0.38532579
4
Lattice="3.128588 0.0 0.0 -1.5642939988088433 2.709436998432005 0.0 0.0 0.0 5.016955" Properties=species:S:1:pos:R:3:spacegroup_kinds:I:1:momenta:R:3:forces:R:3 spacegroup="P 1" unit_cell=conventional occupancy="_JSON {\"0\": {\"Al\": 1}, \"1\": {\"Al\": 1}, \"2\": {\"N\": 1}, \"3\": {\"N\": 1}}" energy=-29.531002044677734 free_energy=-29.531002044677734 stress="-0.018294258043169975 0.0157078318297863 -0.011607889086008072 0.0157078318297863 0.0031478186137974262 0.0046057915315032005 -0.011607889086008072 0.0046057915315032005 -0.01725868508219719" pbc="T T T"
Al       1.54701071       0.87273543       2.46070917        0       0.71855699      -0.11584384       0.49435342       1.07476592      -0.28505629       1.06925762
Al      -0.01761625       1.84389393       5.05391121        1       0.19346420       0.17720445      -0.69190104       0.23187898      -0.07942015      -1.16825259
N        1.56395351       0.94331120       4.45961396        2       0.32487436      -0.12409456      -0.51346205      -0.11547101      -0.20503393      -0.72920281
N        0.06831352       1.75176770       1.87546338        3      -1.23689559       0.06273395       0.71100963      -1.19117367       0.56951052       0.82819760
4
Lattice="3.128588 0.0 0.0 -1.5642939988088433 2.709436998432005 0.0 0.0 0.0 5.016955" Properties=species:S:1:pos:R:3:spacegroup_kinds:I:1:momenta:R:3:forces:R:3 spacegroup="P 1" unit_cell=conventional occupancy="_JSON {\"0\": {\"Al\": 1}, \"1\": {\"Al\": 1}, \"2\": {\"N\": 1}, \"3\": {\"N\": 1}}" energy=-29.61321258544922 free_energy=-29.61321258544922 stress="-0.00838183332234621 -0.004276656080037355 0.005492900498211384 -0.004276656080037355 -0.013937113806605339 0.0014804117381572723 0.005492900498211384 0.0014804117381572723 0.01247540395706892" pbc="T T T"
Al       1.57767905       0.87033377       2.48321565        0       0.42145961      -0.10085914       0.75449399      -0.50598776       0.14215362       0.64867628
Al       0.00878683       1.84488738       5.00616580        1       0.94842493       0.04829652      -0.67234759      -0.28191051      -0.37569773       0.05942831
N        1.54733738       0.91884310       4.41695261        2      -0.50233552      -0.06173840      -0.86681590       0.26756799       0.16352558       0.34766683
N       -0.02491941       1.77881444       1.96659665        3      -0.86754903       0.11430102       0.78466946       0.52033037       0.07001862      -1.05577159
4
Lattice="3.128588 0.0 0.0 -1.5642939988088433 2.709436998432005 0.0 0.0 0.0 5.016955" Properties=species:S:1:pos:R:3:spacegroup_kinds:I:1:momenta:R:3:forces:R:3 spacegroup="P 1" unit_cell=conventional occupancy="_JSON {\"0\": {\"Al\": 1}, \"1\": {\"Al\": 1}, \"2\": {\"N\": 1}, \"3\": {\"N\": 1}}" energy=-29.55784034729004 free_energy=-29.55784034729004 stress="-0.016363903880119324 -0.0029476291965693235 0.012903724797070026 -0.0029476291965693235 -0.0062078977935016155 0.0015374947106465697 0.012903724797070026 0.0015374947106465697 -0.002714787609875202" pbc="T T T"
Al       1.59068814       0.88023432       2.52274589        0      -0.41625508       0.17887044       0.33160868      -0.90884519      -0.14031142      -0.36867923
Al       0.01872292       1.83477376       4.97781988        1       0.14973949      -0.20763060      -0.17578659      -0.72829610      -0.10046321       0.72652876
N        1.52039172       0.92489994       4.39464381        2       0.19754359       0.25939921       0.47781839       0.72475743      -0.09604923       0.71573901
N       -0.04216870       1.77342022       1.96745699        3       0.06897195      -0.23063902      -0.63364050       0.91238379       0.33682412      -1.07358849
4
Lattice="3.128588 0.0 0.0 -1.5642939988088433 2.709436998432005 0.0 0.0 0.0 5.016955" Properties=species:S:1:pos:R:3:spacegroup_kinds:I:1:momenta:R:3:forces:R:3 spacegroup="P 1" unit_cell=conventional occupancy="_JSON {\"0\": {\"Al\": 1}, \"1\": {\"Al\": 1}, \"2\": {\"N\": 1}, \"3\": {\"N\": 1}}" energy=-29.621112823486328 free_energy=-29.621112823486328 stress="-0.021500704810023308 0.005276520736515522 -0.003267341759055853 0.005276520736515522 0.010657692328095436 0.0019248781027272344 -0.003267341759055853 0.0019248781027272344 -0.001589974737726152" pbc="T T T"
Al       1.54767651       0.89587762       2.50832862        0      -0.85810034       0.46896416      -1.00003111       0.39160395      -0.39028877      -0.15032540
Al       0.00665801       1.82067514       5.00342489        1      -0.72966966      -0.11082637       1.46536836      -0.00949938       0.22696689       0.34862888
N        1.57185930       0.94293299       4.45440727        2       0.62349835      -0.37686515       0.64593107      -0.01969685      -0.43335104      -0.83889979
N        0.01256029       1.75229421       1.88600537        3       0.96427160       0.01872738      -1.11126837      -0.36240780       0.59667301       0.64059663
4
Lattice="3.128588 0.0 0.0 -1.5642939988088433 2.709436998432005 0.0 0.0 0.0 5.016955" Properties=species:S:1:pos:R:3:spacegroup_kinds:I:1:momenta:R:3:forces:R:3 spacegroup="P 1" unit_cell=conventional occupancy="_JSON {\"0\": {\"Al\": 1}, \"1\": {\"Al\": 1}, \"2\": {\"N\": 1}, \"3\": {\"N\": 1}}" energy=-29.520856857299805 free_energy=-29.520856857299805 stress="-0.014047744683921337 0.011821048334240913 -0.014255610294640064 0.011821048334240913 -0.005614967551082373 0.009361431002616882 -0.014255610294640064 0.009361431002616882 -0.019571151584386826" pbc="T T T"
Al       1.52999427       0.91403913       2.46474572        0       0.09545064      -0.23101281      -1.18071399       1.21875727      -0.63577330       0.99290460
Al      -0.00890656       1.82180733       5.05208965        1       0.31216914      -0.10747423       0.45537891       0.39472863      -0.38378543      -1.12710321
N        1.59437710       0.88605553       4.45928984        2      -0.04799027      -0.53350336      -0.20523395      -0.40810552       0.35578957      -0.79021788
N        0.05384454       1.77207223       1.87145006        3      -0.35962955       0.87199043       0.93056900      -1.20538020       0.66376919       0.92441654
4
Lattice="3.128588 0.0 0.0 -1.5642939988088433 2.709436998432005 0.0 0.0 0.0 5.016955" Properties=species:S:1:pos:R:3:spacegroup_kinds:I:1:momenta:R:3:forces:R:3 spacegroup="P 1" unit_cell=conventional occupancy="_JSON {\"0\": {\"Al\": 1}, \"1\": {\"Al\": 1}, \"2\": {\"N\": 1}, \"3\": {\"N\": 1}}" energy=-29.618789672851562 free_energy=-29.618789672851562 stress="0.010117887519299984 -0.0018221065402030945 -0.0018730146111920476 -0.0018221065402030945 -0.02478291466832161 0.004591214004904032 -0.0018730146111920476 0.004591214004904032 2.6525975044933148e-05" pbc="T T T"
Al       1.53818032       0.90928015       2.47247632        0       0.23228610      -0.27447218       1.41733355       0.21200985       0.18702318       0.85530627
Al       0.01802689       1.81430744       5.03506520        1       0.60360811      -0.42930291      -1.11140758       0.03760301      -0.69444281      -0.55143076
N        1.59518012       0.85128046       4.42414641        2       0.09084610       0.02420714      -0.77345453      -0.19470331       0.84070730       0.01229016
N       -0.01452979       1.83034440       1.92467356        3      -0.92674036       0.67956793       0.46752849      -0.05490946      -0.33328772      -0.31616563
4
Lattice="3.128588 0.0 0.0 -1.5642939988088433 2.709436998432005 0.0 0.0 0.0 5.016955" Properties=species:S:1:pos:R:3:spacegroup_kinds:I:1:momenta:R:3:forces:R:3 spacegroup="P 1" unit_cell=conventional occupancy="_JSON {\"0\": {\"Al\": 1}, \"1\": {\"Al\": 1}, \"2\": {\"N\": 1}, \"3\": {\"N\": 1}}" energy=-29.623741149902344 free_energy=-29.623741149902344 stress="0.004300275817513466 -0.00867273099720478 0.0028819639701396227 -0.00867273099720478 -0.006943810731172562 -0.004434513859450817 0.0028819639701396227 -0.004434513859450817 -0.01483907550573349" pbc="T T T"
Al       1.54321206       0.89379623       2.53645986        0      -0.00705402      -0.41529088       0.79444987      -0.25250387       0.39302987      -0.87834376
Al       0.03580898       1.79893952       4.98957808        1       0.09337924      -0.29525098      -0.61192046      -0.16600907       0.14058083       0.62744999
N        1.59619755       0.90645095       4.40111849        2      -0.02189820       1.09350639       0.27120904      -0.08899973      -0.09593746       0.34911293
N       -0.05911262       1.83464206       1.91219254        3      -0.06442710      -0.38296455      -0.45373846       0.50751269      -0.43767333      -0.09821977
