4
Lattice="3.128588 0.0 0.0 -1.5642939988088433 2.709436998432005 0.0 0.0 0.0 5.016955" Properties=species:S:1:pos:R:3:spacegroup_kinds:I:1:forces:R:3 spacegroup="P 1" unit_cell=conventional occupancy="_JSON {\"0\": {\"Al\": 1}, \"1\": {\"Al\": 1}, \"2\": {\"N\": 1}, \"3\": {\"N\": 1}}" energy=-29.673717498779297 free_energy=-29.673717498779297 stress="-0.002225323813036084 -1.362652369607531e-06 -1.5731606239910434e-08 -1.362652369607531e-06 -0.0022274916991591454 -4.63873028877515e-08 -1.5731606239910434e-08 -4.63873028877515e-08 -0.0054536862298846245" pbc="T T T"
Al       1.56429556       0.90314476       2.50490041        0      -0.00003504       0.00002034       0.00553210
Al      -0.00000156       1.80629224       5.01337791        1       0.00003461      -0.00001998       0.00552379
N        1.56429556       0.90314476       4.41849749        2      -0.00003630       0.00002086      -0.00552962
N       -0.00000156       1.80629224       1.91001999        3       0.00003665      -0.00002116      -0.00552592
