32
Lattice="6.17176593 0.0 0.0 0.0 8.01859859 0.0 0.0 0.0 13.03281824" Properties=species:S:1:pos:R:3:spacegroup_kinds:I:1:momenta:R:3:forces:R:3 spacegroup="P 1" unit_cell=conventional occupancy="_JSON {\"0\": {\"Li\": 1}, \"1\": {\"Li\": 1}, \"2\": {\"Li\": 1}, \"3\": {\"Li\": 1}, \"4\": {\"Li\": 1}, \"5\": {\"Li\": 1}, \"6\": {\"Li\": 1}, \"7\": {\"Li\": 1}, \"8\": {\"Li\": 1}, \"9\": {\"Li\": 1}, \"10\": {\"Li\": 1}, \"11\": {\"Li\": 1}, \"12\": {\"P\": 1}, \"13\": {\"P\": 1}, \"14\": {\"P\": 1}, \"15\": {\"P\": 1}, \"16\": {\"S\": 1}, \"17\": {\"S\": 1}, \"18\": {\"S\": 1}, \"19\": {\"S\": 1}, \"20\": {\"S\": 1}, \"21\": {\"S\": 1}, \"22\": {\"S\": 1}, \"23\": {\"S\": 1}, \"24\": {\"S\": 1}, \"25\": {\"S\": 1}, \"26\": {\"S\": 1}, \"27\": {\"S\": 1}, \"28\": {\"S\": 1}, \"29\": {\"S\": 1}, \"30\": {\"S\": 1}, \"31\": {\"S\": 1}}" energy=-140.1531524658203 free_energy=-140.1531524658203 stress="-0.0006609264528378844 0.0004929573624394834 -0.0012876923428848386 0.0004929573624394834 -0.0029160254634916782 -6.32153096375987e-05 -0.0012876923428848386 -6.32153096375987e-05 -0.001136175007559359" pbc="T T T"
Li       2.28493576       0.29379967       4.26001791        0      -0.25322057      -0.00279988      -0.19612759       0.19041644      -0.09440777       0.18037838
Li       3.69500894       7.77495050       8.70789959        1      -0.24510909      -0.06800048      -0.01474715       0.13143018      -0.09907374      -0.05910594
Li       5.49106622       7.74048454       2.20419961        2      -0.29353997      -0.10593425       0.09893904      -0.04819277       0.02341741      -0.03084303
Li       0.63535661       0.36073716      10.99221385        3      -0.15334661       0.17929598       0.34957874       0.10974869      -0.18033500      -0.16526873
Li       3.88285165       4.27973487       8.62451033        4       0.06417659      -0.23047215       0.15456621      -0.21578979      -0.03606962       0.09786168
Li       2.43501335       3.78299680       4.42892423        5      -0.13647946       0.08224299      -0.09702683      -0.04180674      -0.15381466      -0.13758761
Li       0.66907529       3.65487070      10.83828344        6       0.14637047      -0.14833441      -0.33882683      -0.04587965       0.25779366      -0.02767618
Li       5.49811413       4.35701156       2.09435685        7      -0.01056769       0.11711287       0.00331460       0.03206343      -0.16996196       0.14467940
Li       3.16609513       0.08551045      -0.05386533        8       0.45214618       0.03699232      -0.01359815      -0.03565378       0.02763282       0.11212774
Li       0.09184237      -0.05786700       6.62152545        9       0.30533227      -0.22155841       0.43181557      -0.25887147      -0.07495935      -0.37037385
Li       3.12975047       4.03969397      -0.03744415       10      -0.05998756      -0.01031274       0.01956181      -0.11210002      -0.03651275       0.07465144
Li       0.10577050       3.98978169       6.52186515       11       0.16808496       0.01104748      -0.22942834      -0.15463252       0.13264193      -0.09589848
P        0.95963982       2.00796659       1.15923007       12       0.05216908      -0.26558986       0.09208021      -0.38195613      -0.03648607       0.17964728
P        5.23050200       6.02157320      11.86575148       13      -0.33198581       0.34459400      -0.03293670       0.29779395      -0.22452889      -0.21122879
P        4.04208720       6.01187916       5.34991193       14       0.07692415       0.94560264      -0.17875124       0.27342701       0.01268963      -0.21629560
P        2.11838250       1.96341064       7.69186401       15      -0.70821451      -0.52474560       0.46538561      -0.06745048       0.22657506       0.07150447
S        5.06382955       1.99453191       1.30936771       16      -0.06595025      -0.16348833       0.09309262       0.42338306       0.07824785      -0.09048096
S        1.11289373       6.02035727      11.73943376       17       0.33827426      -0.13491157       0.30385945      -0.41982093      -0.02243371       0.02873387
S        2.00709647       6.00947769       5.24856577       18      -0.10939298      -0.23772515       0.64137775      -0.12768573       0.03899294      -0.02290300
S        4.14416885       2.02006961       7.85880628       19      -0.05297037      -0.11507274       0.05683814       0.08020303      -0.29242545      -0.09755797
S        1.72157524       2.06359275      12.23657023       20       0.68587181       0.81170038      -0.74328386       0.04132509      -0.17792143       0.25145549
S        4.43341392       6.04032716       0.77808287       21      -0.88388402       0.31714705      -0.21820942       0.07701629       0.02869183      -0.27480593
S        4.78602294       6.02184191       7.30151631       22       0.42858617       0.06254690      -0.53321136       0.08393762       0.06772944      -0.08637246
S        1.35360280       1.98777783       5.73427952       23      -0.93357488      -0.60709585      -0.01350126       0.10723233      -0.03737636       0.18080695
S        1.67231104       0.26323229       1.99780313       24       0.50651772       0.21266882      -0.06700812       0.04689114       0.10668372      -0.36327481
S        4.51893657       7.73346766      10.97788080       25       0.15564662       0.01462993      -1.12418371      -0.12786758       0.05078472       0.11490233
S        4.75978679       7.74053576       4.49184813       26       0.21713628       0.35275745      -0.24306609      -0.08650758      -0.09014017       0.21545617
S        1.35627958       0.25014678       8.55145335       27      -0.57814679      -0.16938587       0.73855048       0.15890446       0.15454799       0.19779025
S        4.48552031       4.30342901      10.97257386       28      -0.07162631       0.68437945      -0.51958362       0.10452016       0.19070058       0.26857287
S        1.69664019       3.70813295       2.02386531       29       0.74832155      -0.39048462       0.43359706       0.03595045       0.04718322       0.00587300
S        1.40721684       3.69604040       8.54394849       30       0.16371381      -0.43704585       0.45131035      -0.00204644       0.02416820      -0.03870277
S        4.79808811       4.28125351       4.48736785       31       0.37872496      -0.33976048       0.22962272      -0.06798168       0.25796604       0.16393477
