32
Lattice="6.17176593 0.0 0.0 0.0 8.01859859 0.0 0.0 0.0 13.03281824" Properties=species:S:1:pos:R:3:spacegroup_kinds:I:1:momenta:R:3:forces:R:3 spacegroup="P 1" unit_cell=conventional occupancy="_JSON {\"0\": {\"Li\": 1}, \"1\": {\"Li\": 1}, \"2\": {\"Li\": 1}, \"3\": {\"Li\": 1}, \"4\": {\"Li\": 1}, \"5\": {\"Li\": 1}, \"6\": {\"Li\": 1}, \"7\": {\"Li\": 1}, \"8\": {\"Li\": 1}, \"9\": {\"Li\": 1}, \"10\": {\"Li\": 1}, \"11\": {\"Li\": 1}, \"12\": {\"P\": 1}, \"13\": {\"P\": 1}, \"14\": {\"P\": 1}, \"15\": {\"P\": 1}, \"16\": {\"S\": 1}, \"17\": {\"S\": 1}, \"18\": {\"S\": 1}, \"19\": {\"S\": 1}, \"20\": {\"S\": 1}, \"21\": {\"S\": 1}, \"22\": {\"S\": 1}, \"23\": {\"S\": 1}, \"24\": {\"S\": 1}, \"25\": {\"S\": 1}, \"26\": {\"S\": 1}, \"27\": {\"S\": 1}, \"28\": {\"S\": 1}, \"29\": {\"S\": 1}, \"30\": {\"S\": 1}, \"31\": {\"S\": 1}}" energy=-140.31869506835938 free_energy=-140.31869506835938 stress="-0.007170631550252438 -5.1911230869450264e-09 1.874543364976944e-08 -5.1911230869450264e-09 -0.008259439840912819 -8.565826270512389e-09 1.874543364976944e-08 -8.565826270512389e-09 -0.005266317166388035" pbc="T T T"
Li       2.40329652       0.26860172       4.33400832        0       0.00000000       0.00000000       0.00000000      -0.02603510       0.00549058      -0.00432166
Li       3.76846941       7.74999687       8.69880992        1       0.00000000       0.00000000       0.00000000       0.02603675      -0.00549225       0.00432290
Li       5.48917948       7.74999687       2.18240080        2       0.00000000       0.00000000       0.00000000      -0.02603604      -0.00548974       0.00432266
Li       0.68258645       0.26860172      10.85041744        3       0.00000000       0.00000000       0.00000000       0.02603487       0.00549152      -0.00431950
Li       3.76846941       4.27790102       8.69880992        4       0.00000000       0.00000000       0.00000000       0.02603601       0.00549157       0.00432283
Li       2.40329652       3.74069757       4.33400832        5       0.00000000       0.00000000       0.00000000      -0.02603576      -0.00549101      -0.00432197
Li       0.68258645       3.74069757      10.85041744        6       0.00000000       0.00000000       0.00000000       0.02603627      -0.00549163      -0.00431980
Li       5.48917948       4.27790102       2.18240080        7       0.00000000       0.00000000       0.00000000      -0.02603590       0.00549087       0.00432247
Li       3.08588297       0.00000000       0.00000000        8       0.00000000       0.00000000       0.00000000      -0.00000080      -0.00000190      -0.00000143
Li       0.00000000       0.00000000       6.51640912        9       0.00000000       0.00000000       0.00000000      -0.00000010      -0.00000017      -0.00000003
Li       3.08588297       4.00929929       0.00000000       10       0.00000000       0.00000000       0.00000000       0.00000014       0.00000117      -0.00000034
Li       0.00000000       4.00929929       6.51640912       11       0.00000000       0.00000000       0.00000000       0.00000011       0.00000016       0.00000008
P        0.94051010       2.00464965       1.16601784       12       0.00000000       0.00000000       0.00000000      -0.02067215       0.00000110       0.02376116
P        5.23125583       6.01394894      11.86680040       13       0.00000000       0.00000000       0.00000000       0.02066657      -0.00000033      -0.02375994
P        4.02639307       6.01394894       5.35039128       14       0.00000000       0.00000000       0.00000000      -0.02066793       0.00000197      -0.02375621
P        2.14537286       2.00464965       7.68242696       15       0.00000000       0.00000000       0.00000000       0.02066841      -0.00000064       0.02375805
S        5.08970823       2.00464965       1.30575389       16       0.00000000       0.00000000       0.00000000      -0.25450516       0.00000054       0.01679124
S        1.08205770       6.01394894      11.72706435       17       0.00000000       0.00000000       0.00000000       0.25450760      -0.00000133      -0.01679243
S        2.00382526       6.01394894       5.21065523       18       0.00000000       0.00000000       0.00000000      -0.25450614      -0.00000039      -0.01679265
S        4.16794067       2.00464965       7.82216301       19       0.00000000       0.00000000       0.00000000       0.25450101      -0.00000077       0.01678954
S        1.68132889       2.00464965      12.25955363       20       0.00000000       0.00000000       0.00000000       0.10912246       0.00000047      -0.16719589
S        4.49043704       6.01394894       0.77326461       21       0.00000000       0.00000000       0.00000000      -0.10912047       0.00000041       0.16718116
S        4.76721186       6.01394894       7.28967373       22       0.00000000       0.00000000       0.00000000       0.10912108       0.00000034       0.16718036
S        1.40455407       2.00464965       5.74314451       23       0.00000000       0.00000000       0.00000000      -0.10911977       0.00000007      -0.16718094
S        1.67233151       0.29287049       2.00524453       24       0.00000000       0.00000000       0.00000000       0.13957794      -0.21272573       0.08709900
S        4.49943442       7.72572810      11.02757371       25       0.00000000       0.00000000       0.00000000      -0.13957617       0.21272446      -0.08709268
S        4.75821447       7.72572810       4.51116459       26       0.00000000       0.00000000       0.00000000       0.13957508       0.21272476      -0.08709168
S        1.41355146       0.29287049       8.52165365       27       0.00000000       0.00000000       0.00000000      -0.13957530      -0.21272051       0.08709212
S        4.49943442       4.30216979      11.02757371       28       0.00000000       0.00000000       0.00000000      -0.13957721      -0.21272475      -0.08709349
S        1.67233151       3.71642880       2.00524453       29       0.00000000       0.00000000       0.00000000       0.13957863       0.21272585       0.08709854
S        1.41355146       3.71642880       8.52165365       30       0.00000000       0.00000000       0.00000000      -0.13957560       0.21272141       0.08709162
S        4.75821447       4.30216979       4.51116459       31       0.00000000       0.00000000       0.00000000       0.13957652      -0.21272619      -0.08709326
32
Lattice="6.17176593 0.0 0.0 0.0 8.01859859 0.0 0.0 0.0 13.03281824" Properties=species:S:1:pos:R:3:spacegroup_kinds:I:1:momenta:R:3:forces:R:3 spacegroup="P 1" unit_cell=conventional occupancy="_JSON {\"0\": {\"Li\": 1}, \"1\": {\"Li\": 1}, \"2\": {\"Li\": 1}, \"3\": {\"Li\": 1}, \"4\": {\"Li\": 1}, \"5\": {\"Li\": 1}, \"6\": {\"Li\": 1}, \"7\": {\"Li\": 1}, \"8\": {\"Li\": 1}, \"9\": {\"Li\": 1}, \"10\": {\"Li\": 1}, \"11\": {\"Li\": 1}, \"12\": {\"P\": 1}, \"13\": {\"P\": 1}, \"14\": {\"P\": 1}, \"15\": {\"P\": 1}, \"16\": {\"S\": 1}, \"17\": {\"S\": 1}, \"18\": {\"S\": 1}, \"19\": {\"S\": 1}, \"20\": {\"S\": 1}, \"21\": {\"S\": 1}, \"22\": {\"S\": 1}, \"23\": {\"S\": 1}, \"24\": {\"S\": 1}, \"25\": {\"S\": 1}, \"26\": {\"S\": 1}, \"27\": {\"S\": 1}, \"28\": {\"S\": 1}, \"29\": {\"S\": 1}, \"30\": {\"S\": 1}, \"31\": {\"S\": 1}}" energy=-140.31887817382812 free_energy=-140.31887817382812 stress="-0.007112802006304264 -3.109426643277402e-06 -1.1852349643959315e-06 -3.109426643277402e-06 -0.00826107244938612 4.233204526826739e-05 -1.1852349643959315e-06 4.233204526826739e-05 -0.005282605532556772" pbc="T T T"
Li       2.40477633       0.26823653       4.33423544        0       0.06361785      -0.00295597       0.02820745      -0.02964078       0.00736075      -0.00408685
Li       3.76881175       7.74868190       8.69982166        1      -0.02152171      -0.01379423       0.01200762       0.02290731      -0.00292208       0.00206855
Li       5.48773420       7.75127889       2.18254703        2      -0.04139293       0.08769790       0.01974116      -0.02536031      -0.00630936       0.00346196
Li       0.68336334       0.26918546      10.85002749        3       0.01857816       0.08206934      -0.00463349       0.02311140       0.00412988      -0.00463651
Li       3.76694493       4.27739511       8.69669425        4      -0.01888191       0.01215985      -0.15924801       0.02776342       0.00679423       0.00841046
Li       2.40440776       3.73971447       4.33449526        5       0.02994307      -0.03471783       0.05747439      -0.02895262      -0.00317586      -0.00549233
Li       0.68166511       3.74004894      10.85099712        6       0.01953227      -0.06628032       0.09248680       0.02753576      -0.00393604      -0.00549182
Li       5.48887170       4.27916417       2.18071625        7       0.02796403       0.07317776      -0.06490949      -0.02479586       0.00304739       0.00692949
Li       3.08557992       0.00046048      -0.00106114        8      -0.00896492      -0.04672959      -0.08351559      -0.00043315       0.00004508       0.00261473
Li       0.00039289      -0.00144149       6.51732679        9       0.02139044      -0.03999692       0.01760608       0.00020259       0.00061773      -0.00149929
Li       3.08637958       4.01045964      -0.00053665       10       0.01534151       0.03232731      -0.03482663      -0.00094630      -0.00230329       0.00003016
Li       0.00194601       4.00989968       6.51888738       11       0.13391764      -0.02285923       0.13573822      -0.00420283       0.00186589      -0.00708352
P        0.94153056       2.00514488       1.16601889       12       0.23614367       0.09397582       0.14692156      -0.04504870      -0.00025243       0.02118371
P        5.23171826       6.01390041      11.86655826       13       0.03548073      -0.12313219       0.01272320       0.00770274      -0.01037752      -0.03211652
P        4.02708583       6.01311138       5.34985968       14       0.00035730      -0.22138770      -0.24634142      -0.03148398       0.00006989      -0.00964855
P        2.14609335       2.00492447       7.68214152       15       0.17011433       0.17009649       0.04942274       0.01289696      -0.00626180       0.02645564
S        5.08947045       2.00533758       1.30669176       16       0.03120688       0.16509475       0.19979964      -0.23825546       0.00065998       0.01363286
S        1.08232815       6.01455648      11.72797935       17      -0.07388259       0.11475913       0.06721822       0.25384566      -0.00240075      -0.01968046
S        2.00392244       6.01498908       5.21159991       18       0.04934272       0.13143614       0.14932404      -0.24733958      -0.00922543      -0.01966905
S        4.16815539       2.00429566       7.82219180       19      -0.03119600      -0.08900155      -0.02808335       0.25812817       0.00168437       0.01734959
S        1.68134554       2.00461268      12.25907460       20       0.11031677      -0.00653111      -0.08114708       0.10954188       0.00062130      -0.16367520
S        4.48991502       6.01371975       0.77244929       21      -0.13591215       0.01197166      -0.16656488      -0.10887817       0.00364891       0.17090939
S        4.76711029       6.01406854       7.29015695       22       0.07288659       0.09036251       0.16444326       0.10929062      -0.00401479       0.15991515
S        1.40429301       2.00416332       5.74386931       23      -0.04167933      -0.18460282       0.10946150      -0.10802752       0.00185375      -0.17861700
S        1.67162760       0.29328342       2.00552925       24      -0.07235022       0.10918699       0.13142399       0.14428154      -0.21603492       0.08762383
S        4.49874132       7.72555759      11.02735035       25      -0.20533152      -0.06902468      -0.05019505      -0.13252233       0.20899294      -0.08582292
S        4.75775534       7.72508033       4.51156961       26      -0.10598149      -0.08761386       0.00256430       0.14871387       0.21857145      -0.09168733
S        1.41329584       0.29375221       8.52128856       27      -0.26864528       0.12323250       0.02903789      -0.13725542      -0.21930610       0.09269101
S        4.49919584       4.30091042      11.02722312       28       0.11788616      -0.21489585      -0.06674781      -0.13122347      -0.19506276      -0.08381915
S        1.67250475       3.71729052       2.00425186       29      -0.08976646       0.18921579      -0.17902913       0.14272974       0.21511528       0.09174598
S        1.41216358       3.71580225       8.52106871       30      -0.28676195      -0.13148281      -0.14587784      -0.13391347       0.21799605       0.09478091
S        4.75901892       4.30140738       4.51130031       31       0.24824837      -0.13175729      -0.11448230       0.13962810      -0.21149173      -0.08677690
32
Lattice="6.17176593 0.0 0.0 0.0 8.01859859 0.0 0.0 0.0 13.03281824" Properties=species:S:1:pos:R:3:spacegroup_kinds:I:1:momenta:R:3:forces:R:3 spacegroup="P 1" unit_cell=conventional occupancy="_JSON {\"0\": {\"Li\": 1}, \"1\": {\"Li\": 1}, \"2\": {\"Li\": 1}, \"3\": {\"Li\": 1}, \"4\": {\"Li\": 1}, \"5\": {\"Li\": 1}, \"6\": {\"Li\": 1}, \"7\": {\"Li\": 1}, \"8\": {\"Li\": 1}, \"9\": {\"Li\": 1}, \"10\": {\"Li\": 1}, \"11\": {\"Li\": 1}, \"12\": {\"P\": 1}, \"13\": {\"P\": 1}, \"14\": {\"P\": 1}, \"15\": {\"P\": 1}, \"16\": {\"S\": 1}, \"17\": {\"S\": 1}, \"18\": {\"S\": 1}, \"19\": {\"S\": 1}, \"20\": {\"S\": 1}, \"21\": {\"S\": 1}, \"22\": {\"S\": 1}, \"23\": {\"S\": 1}, \"24\": {\"S\": 1}, \"25\": {\"S\": 1}, \"26\": {\"S\": 1}, \"27\": {\"S\": 1}, \"28\": {\"S\": 1}, \"29\": {\"S\": 1}, \"30\": {\"S\": 1}, \"31\": {\"S\": 1}}" energy=-140.31869506835938 free_energy=-140.31869506835938 stress="-0.0071733505465090275 -5.258981673250673e-06 1.870257983682677e-05 -5.258981673250673e-06 -0.008172786794602871 -1.557360519655049e-05 1.870257983682677e-05 -1.557360519655049e-05 -0.005159534979611635" pbc="T T T"
Li       2.40716588       0.26932612       4.33441262        0       0.02955298       0.03933777      -0.03391199      -0.03408740       0.00801583      -0.00444644
Li       3.76873245       7.74850887       8.69965733        1      -0.03014471      -0.01549354      -0.00812280       0.01729287      -0.00465404       0.00369731
Li       5.48570638       7.75314509       2.18259793        2      -0.03851681       0.02776733      -0.00304288      -0.02513584      -0.00524570       0.00383196
Li       0.68346675       0.27149704      10.85069718        3      -0.05393602       0.06554489       0.00945834       0.01714347      -0.00146105      -0.00593612
Li       3.77047903       4.27703244       8.68940807        4       0.17784683       0.02068423      -0.23840780       0.01939294       0.00720422       0.02156426
Li       2.40628914       3.73887724       4.33774857        5       0.08651010      -0.01622054       0.12402747      -0.03360238      -0.00276320      -0.01336693
Li       0.67965610       3.73720238      10.85562197        6      -0.10619420      -0.09224694       0.08584736       0.03222300       0.00117555      -0.01565400
Li       5.48953317       4.28144091       2.17716207        7       0.01765470       0.06851044      -0.12206968      -0.02590173       0.00004335       0.01008731
Li       3.08401766       0.00045512      -0.00502843        8      -0.08334603       0.07686276      -0.14837400      -0.00235621       0.00123831       0.00646609
Li       0.00288304      -0.00410201       6.51788326        9       0.04398758      -0.10242904       0.08501641      -0.00237423      -0.00216959      -0.00204679
Li       3.09004213       4.01114018      -0.00264034       10       0.15628441       0.02182247      -0.07858438      -0.00710449      -0.00847782       0.00422322
Li       0.00667158       4.00834323       6.52514629       11       0.03479658      -0.12516408       0.16128550      -0.01950139       0.01190649      -0.02590339
P        0.94360044       2.00617414       1.16726625       12       0.22994960       0.27259640       0.05373479      -0.07644245      -0.00082616       0.00339878
P        5.23280291       6.01271990      11.86807762       13       0.15123166      -0.17570362       0.27014605      -0.01511795       0.02289736      -0.07802644
P        4.02653051       6.01081074       5.34751453       14      -0.08625660      -0.41416483      -0.25912424      -0.00160760       0.01853238       0.04360805
P        2.14666457       2.00551451       7.68178590       15       0.06212898      -0.10430193      -0.08302392      -0.02000419      -0.05204445       0.05624653
S        5.09012464       2.00661147       1.30756152       16       0.00919546       0.22227535       0.09618144      -0.22339796       0.00160337       0.01182768
S        1.08220251       6.01429123      11.72739121       17       0.04540486      -0.19502243      -0.20348115       0.26630840      -0.00136037      -0.01613025
S        2.00396660       6.01614339       5.21278403       18       0.01114089       0.24288411       0.22845563      -0.25322685      -0.02288725      -0.02474818
S        4.16691699       2.00322508       7.82310121       19      -0.14751943      -0.07345060       0.30116334       0.28075734       0.00364646       0.01460939
S        1.68096991       2.00519453      12.25817151       20      -0.10529152       0.13943094      -0.01066969       0.11374971      -0.00151389      -0.14244789
S        4.48936435       6.01470533       0.77150795       21      -0.07928109       0.21837372      -0.07231959      -0.11260381       0.00180130       0.19019860
S        4.76816676       6.01500098       7.29196427       22       0.19872487       0.05435730       0.39631028       0.09690750      -0.01389537       0.10522918
S        1.40404251       2.00317834       5.74531521       23       0.05517432      -0.04773730       0.14236395      -0.10943571       0.00303874      -0.20268357
S        1.67051874       0.29318177       2.00619433       24      -0.27100113      -0.02779312       0.07535333       0.15322453      -0.21519712       0.08550850
S        4.49750602       7.72577118      11.02679442       25      -0.04041914       0.16077176       0.04463763      -0.11383808       0.17909311      -0.07010347
S        4.75631568       7.72475393       4.51202588       26      -0.19890687      -0.13936609       0.01606563       0.15777770       0.21452375      -0.09402478
S        1.41052928       0.29338168       8.52267265       27      -0.29105236      -0.08075734       0.06731966      -0.11502139      -0.19121607       0.07693297
S        4.50047373       4.30028626      11.02649053       28       0.14906198      -0.02185213      -0.21452938      -0.13476945      -0.19058073      -0.08495161
S        1.67198948       3.71956791       2.00328847       29       0.00886944       0.32660894      -0.14372988       0.15733062       0.21556489       0.09949192
S        1.41079992       3.71475133       8.51981857       30      -0.16489500      -0.20612428      -0.07383453      -0.12373133       0.23299213       0.11817640
S        4.76087876       4.30066764       4.50906650       31       0.22924569      -0.12000058      -0.46414087       0.13715246      -0.20898454      -0.07462823
32
Lattice="6.17176593 0.0 0.0 0.0 8.01859859 0.0 0.0 0.0 13.03281824" Properties=species:S:1:pos:R:3:spacegroup_kinds:I:1:momenta:R:3:forces:R:3 spacegroup="P 1" unit_cell=conventional occupancy="_JSON {\"0\": {\"Li\": 1}, \"1\": {\"Li\": 1}, \"2\": {\"Li\": 1}, \"3\": {\"Li\": 1}, \"4\": {\"Li\": 1}, \"5\": {\"Li\": 1}, \"6\": {\"Li\": 1}, \"7\": {\"Li\": 1}, \"8\": {\"Li\": 1}, \"9\": {\"Li\": 1}, \"10\": {\"Li\": 1}, \"11\": {\"Li\": 1}, \"12\": {\"P\": 1}, \"13\": {\"P\": 1}, \"14\": {\"P\": 1}, \"15\": {\"P\": 1}, \"16\": {\"S\": 1}, \"17\": {\"S\": 1}, \"18\": {\"S\": 1}, \"19\": {\"S\": 1}, \"20\": {\"S\": 1}, \"21\": {\"S\": 1}, \"22\": {\"S\": 1}, \"23\": {\"S\": 1}, \"24\": {\"S\": 1}, \"25\": {\"S\": 1}, \"26\": {\"S\": 1}, \"27\": {\"S\": 1}, \"28\": {\"S\": 1}, \"29\": {\"S\": 1}, \"30\": {\"S\": 1}, \"31\": {\"S\": 1}}" energy=-140.3174591064453 free_energy=-140.3174591064453 stress="-0.00716688996180892 -3.063468830077909e-05 0.00011632836685748771 -3.063468830077909e-05 -0.008020387031137943 1.9416862414800562e-05 0.00011632836685748771 1.9416862414800562e-05 -0.004979748744517565" pbc="T T T"
Li       2.40623167       0.26799371       4.33296668        0      -0.06146460      -0.07154469       0.02311419      -0.03592891       0.01196181      -0.00404655
Li       3.76760872       7.74845605       8.69691499        1       0.01640243      -0.02555497      -0.09836946       0.01589398      -0.00865819       0.01368009
Li       5.48448135       7.75290117       2.18396636        2       0.01233790      -0.00131630       0.07350193      -0.02626400       0.00056620       0.00004435
Li       0.68048920       0.27260347      10.85185938        3      -0.09355969      -0.00143272       0.06802751       0.02065285      -0.00240780      -0.00746334
Li       3.77700967       4.27730298       8.68214158        4       0.13974107       0.02813224      -0.23250788       0.00187807       0.00526079       0.03367027
Li       2.41055554       3.73937235       4.34319891        5       0.15361387      -0.01075950       0.23954105      -0.04446061      -0.00457982      -0.02473547
Li       0.67593051       3.73320463      10.85936528        6      -0.18523438      -0.12268505       0.11665436       0.04015003       0.00905871      -0.02508231
Li       5.48977835       4.28598862       2.17113385        7      -0.01211333       0.12197580      -0.14944218      -0.02146425      -0.00923319       0.01615712
Li       3.08322386       0.00525691      -0.01150553        8       0.05949444       0.16776468      -0.22615045      -0.00453695      -0.00150043       0.01960245
Li       0.00477466      -0.00828116       6.52294052        9       0.06154649      -0.06724209       0.19443282      -0.00575397      -0.00294321      -0.01395125
Li       3.09753540       4.01144342      -0.00538841       10       0.21341092       0.00283525      -0.07117042      -0.01859995      -0.01691410       0.01375804
Li       0.00868042       4.00191852       6.52997583       11       0.05468704      -0.21742961       0.14650783      -0.03080009       0.02340633      -0.03849160
P        0.94477267       2.00829261       1.16702298       12       0.07331225       0.13808560      -0.18691698      -0.10491763      -0.01135583       0.02328671
P        5.23425864       6.01152748      11.86979545       13       0.15084252      -0.20185974       0.10698815      -0.03768861       0.04514023      -0.12190169
P        4.02678998       6.00828835       5.34453353       14       0.18103961      -0.28533758      -0.45946321      -0.00164708       0.03590770       0.10751411
P        2.14771596       2.00477199       7.68204429       15       0.09070622      -0.13645189       0.02844050      -0.07167843      -0.05589899       0.06888767
S        5.09025634       2.00789950       1.30801397       16      -0.02622876       0.13931561       0.24794980      -0.21604732       0.00709075       0.00964663
S        1.08232943       6.01397121      11.72693298       17       0.19659396      -0.03620310      -0.02817648       0.27556401      -0.00387494      -0.01457760
S        2.00221471       6.01763978       5.21489078       18      -0.27262907       0.08897777       0.31308613      -0.21624067      -0.04050428      -0.02794309
S        4.16550087       2.00227770       7.82512671       19      -0.21144466      -0.02432943       0.26408055       0.31637624       0.00216614       0.01008778
S        1.67985552       2.00679587      12.25832651       20      -0.05999530       0.28038595       0.13646540       0.12407911      -0.00557488      -0.15430117
S        4.48881859       6.01601102       0.77068810       21      -0.18232928       0.16555011      -0.18087343      -0.11876866      -0.00094905       0.20293522
S        4.77011344       6.01615291       7.29483332       22       0.16944648       0.23928756       0.37328806       0.07921294      -0.02660123       0.02900945
S        1.40402166       2.00376034       5.74600305       23      -0.01504541       0.25479189      -0.00071162      -0.10480050      -0.00685617      -0.20863244
S        1.66718173       0.29291536       2.00583121       24      -0.40414295      -0.02058640      -0.13856586       0.16738465      -0.20961267       0.07618818
S        4.49773809       7.72707066      11.02822693       25       0.08077702       0.19727843       0.20767764      -0.10574182       0.14975010      -0.07082869
S        4.75496161       7.72386084       4.51148873       26      -0.22324441      -0.03886072      -0.10476908       0.16407439       0.21012601      -0.08833571
S        1.40864798       0.29262630       8.52360625       27      -0.22232602      -0.20640876       0.16335355      -0.09980845      -0.17819276       0.07317852
S        4.50135212       4.29929085      11.02449898       28       0.10099532      -0.18447898      -0.26578686      -0.13248363      -0.17049800      -0.07606143
S        1.67261961       3.72120560       2.00260621       29       0.09766600       0.06731509      -0.15320962       0.16672890       0.21777126       0.10521978
S        1.40918603       3.71332724       8.51957626       30      -0.29131663      -0.06148570       0.05357737      -0.10487981       0.23299010       0.13139860
S        4.76326931       4.29917511       4.50580331       31       0.40846096      -0.17772872      -0.46057334       0.13051610      -0.19504064      -0.05791272
32
Lattice="6.17176593 0.0 0.0 0.0 8.01859859 0.0 0.0 0.0 13.03281824" Properties=species:S:1:pos:R:3:spacegroup_kinds:I:1:momenta:R:3:forces:R:3 spacegroup="P 1" unit_cell=conventional occupancy="_JSON {\"0\": {\"Li\": 1}, \"1\": {\"Li\": 1}, \"2\": {\"Li\": 1}, \"3\": {\"Li\": 1}, \"4\": {\"Li\": 1}, \"5\": {\"Li\": 1}, \"6\": {\"Li\": 1}, \"7\": {\"Li\": 1}, \"8\": {\"Li\": 1}, \"9\": {\"Li\": 1}, \"10\": {\"Li\": 1}, \"11\": {\"Li\": 1}, \"12\": {\"P\": 1}, \"13\": {\"P\": 1}, \"14\": {\"P\": 1}, \"15\": {\"P\": 1}, \"16\": {\"S\": 1}, \"17\": {\"S\": 1}, \"18\": {\"S\": 1}, \"19\": {\"S\": 1}, \"20\": {\"S\": 1}, \"21\": {\"S\": 1}, \"22\": {\"S\": 1}, \"23\": {\"S\": 1}, \"24\": {\"S\": 1}, \"25\": {\"S\": 1}, \"26\": {\"S\": 1}, \"27\": {\"S\": 1}, \"28\": {\"S\": 1}, \"29\": {\"S\": 1}, \"30\": {\"S\": 1}, \"31\": {\"S\": 1}}" energy=-140.31529235839844 free_energy=-140.31529235839844 stress="-0.006993701681494713 -4.157345301791793e-06 0.00015652249567210674 -4.157345301791793e-06 -0.007752974051982164 3.289211235824041e-05 0.00015652249567210674 3.289211235824041e-05 -0.004833713173866272" pbc="T T T"
Li       2.40183192       0.26831976       4.33372687        0      -0.20864265       0.02224760      -0.00651835      -0.02871161       0.00731238      -0.00912742
Li       3.76865621       7.74802694       8.69483056        1       0.01396735      -0.06162784      -0.07476478       0.00882479      -0.00729087       0.02082505
Li       5.48542188       7.75277735       2.18440263        2       0.00949536       0.02747614      -0.00521770      -0.03291765       0.00452523      -0.00033177
Li       0.67842144       0.27398356      10.85779611        3      -0.05374304       0.05373040       0.19997795       0.02510564      -0.00462858      -0.01658549
Li       3.78101161       4.27836027       8.67382585        4       0.10267158       0.03289938      -0.16809098      -0.01251275       0.00330449       0.04687459
Li       2.41528409       3.73869524       4.35029758        5       0.13839168       0.01834031       0.11831212      -0.05286290      -0.00290118      -0.04022388
Li       0.66912411       3.72650956      10.86213633        6      -0.16853564      -0.23077590       0.06576925       0.05472801       0.02239656      -0.03294967
Li       5.48892463       4.29181248       2.16381306        7      -0.00661616       0.20123215      -0.26154121      -0.01233055      -0.02257128       0.02245897
Li       3.08591389       0.01319667      -0.01819530        8       0.08499536       0.24207657      -0.20518259      -0.00603399      -0.00636753       0.04054554
Li       0.00696927      -0.01080301       6.52917838        9       0.11417702      -0.08076436       0.18992902      -0.01502415      -0.00573931      -0.03105408
Li       3.10382517       4.01206237      -0.00833120       10       0.16489452       0.01206871      -0.07055049      -0.02815603      -0.02049671       0.02544371
Li       0.01214376       3.99591256       6.53595647       11       0.13344301      -0.08350251       0.12635203      -0.04588324       0.03781871      -0.05522584
P        0.94622096       2.00998202       1.16533499       12       0.33977430       0.24729178      -0.10624286      -0.15534657      -0.03158819       0.08861941
P        5.23536801       6.01001650      11.86996791       13       0.09972340      -0.10298220       0.06346023      -0.04549938       0.05617069      -0.12427989
P        4.02791795       6.00535482       5.34271749       14       0.08990412      -0.46334937      -0.19754342      -0.00466917       0.07829878       0.12973060
P        2.14794053       2.00328791       7.68106872       15       0.00516162      -0.30278946      -0.14205839      -0.11209692      -0.05005214       0.10964804
S        5.08917025       2.00878360       1.30882091       16      -0.17446382       0.03117222       0.02253977      -0.18638705       0.01554593       0.00043490
S        1.08333708       6.01470316      11.72777728       17       0.09975727       0.21344848       0.17266716       0.26290894      -0.01703671      -0.01729380
S        2.00159985       6.01745103       5.21725263       18       0.05948576      -0.11261027       0.27951441      -0.18860398      -0.05210093      -0.02951472