4
Lattice="3.128588 0.0 0.0 -1.5642939988088433 2.709436998432005 0.0 0.0 0.0 5.016955" Properties=species:S:1:pos:R:3:spacegroup_kinds:I:1:forces:R:3 spacegroup="P 1" unit_cell=conventional occupancy="_JSON {\"0\": {\"Al\": 1}, \"1\": {\"Al\": 1}, \"2\": {\"N\": 1}, \"3\": {\"N\": 1}}" energy=-29.67371940612793 free_energy=-29.67371940612793 stress="-0.0022252770140767097 -1.4500527640848304e-06 -1.1716668746331038e-09 -1.4500527640848304e-06 -0.0022274632938206196 -3.9535184015448976e-08 -1.1716668746331038e-09 -3.9535184015448976e-08 -0.005453763995319605" pbc="T T T"
Al       1.56429556       0.90314476       2.50490041        0      -0.00003543       0.00002011       0.00553258
Al      -0.00000156       1.80629224       5.01337791        1       0.00003547      -0.00001823       0.00552261
N        1.56429556       0.90314476       4.41849749        2      -0.00003729       0.00001893      -0.00552955
N       -0.00000156       1.80629224       1.91001999        3       0.00003729      -0.00002097      -0.00552526
