32
Lattice="6.17176593 0.0 0.0 0.0 8.01859859 0.0 0.0 0.0 13.03281824" Properties=species:S:1:pos:R:3:spacegroup_kinds:I:1:forces:R:3 spacegroup="P 1" unit_cell=conventional occupancy="_JSON {\"0\": {\"Li\": 1}, \"1\": {\"Li\": 1}, \"2\": {\"Li\": 1}, \"3\": {\"Li\": 1}, \"4\": {\"Li\": 1}, \"5\": {\"Li\": 1}, \"6\": {\"Li\": 1}, \"7\": {\"Li\": 1}, \"8\": {\"Li\": 1}, \"9\": {\"Li\": 1}, \"10\": {\"Li\": 1}, \"11\": {\"Li\": 1}, \"12\": {\"P\": 1}, \"13\": {\"P\": 1}, \"14\": {\"P\": 1}, \"15\": {\"P\": 1}, \"16\": {\"S\": 1}, \"17\": {\"S\": 1}, \"18\": {\"S\": 1}, \"19\": {\"S\": 1}, \"20\": {\"S\": 1}, \"21\": {\"S\": 1}, \"22\": {\"S\": 1}, \"23\": {\"S\": 1}, \"24\": {\"S\": 1}, \"25\": {\"S\": 1}, \"26\": {\"S\": 1}, \"27\": {\"S\": 1}, \"28\": {\"S\": 1}, \"29\": {\"S\": 1}, \"30\": {\"S\": 1}, \"31\": {\"S\": 1}}" energy=-140.3463134765625 free_energy=-140.3463134765625 stress="-0.002888639457523823 -9.977975778951986e-09 -5.694961835445156e-09 -9.977975778951986e-09 -0.004072269424796104 1.500763069373079e-08 -5.694961835445156e-09 1.500763069373079e-08 -0.0025935894809663296" pbc="T T T"
Li       2.40166816       0.26892250       4.33377962        0      -0.01548980       0.00236019       0.00063511
Li       3.77009794       7.74967600       8.69903847        1       0.01548977      -0.00236143      -0.00063143
Li       5.48755109       7.74967606       2.18262941        2      -0.01549322      -0.00236014      -0.00063293
Li       0.68421474       0.26892245      10.85018874        3       0.01549364       0.00236323       0.00063282
Li       3.77009794       4.27822192       8.69903842        4       0.01548747       0.00235788      -0.00063485
Li       2.40166819       3.74037678       4.33377962        5      -0.01548967      -0.00235964       0.00063404
Li       0.68421483       3.74037679      10.85018871        6       0.01549144      -0.00236119       0.00063167
Li       5.48755102       4.27822186       2.18262940        7      -0.01549273       0.00236047      -0.00062963
Li       3.08588287      -0.00000009       0.00000006        8      -0.00000094       0.00000107      -0.00000131
Li       0.00000001      -0.00000004       6.51640920        9       0.00000140       0.00000147       0.00000018
Li       3.08588299       4.00929935       0.00000007       10      -0.00000187      -0.00000229       0.00000114
Li       0.00000001       4.00929932       6.51640923       11       0.00000023      -0.00000034      -0.00000040
P        0.93932954       2.00464933       1.16793469       12      -0.00066834       0.00000883       0.03303485
P        5.23243627       6.01394878      11.86488417       13       0.00066716       0.00000468      -0.03305661
P        4.02521220       6.01394890       5.34847526       14      -0.00065228       0.00000044      -0.03306454
P        2.14655386       2.00464966       7.68434321       15       0.00065348       0.00000058       0.03305122
S        5.07612361       2.00464971       1.30682516       16       0.00280103       0.00000013       0.01274864
S        1.09564233       6.01394887      11.72599296       17      -0.00280222       0.00000109      -0.01274583
S        1.99024093       6.01394888       5.20958390       18       0.00279344      -0.00000023      -0.01274498
S        4.18152507       2.00464972       7.82323418       19      -0.00279173       0.00000108       0.01274960
S        1.68772171       2.00464968      12.25093566       20       0.03397167      -0.00000076       0.02524723
S        4.48404415       6.01394887       0.78188255       21      -0.03397293      -0.00000053      -0.02523770
S        4.77360473       6.01394893       7.29829158       22       0.03397106       0.00000072      -0.02524025
S        1.39816134       2.00464969       5.73452692       23      -0.03397314      -0.00000011       0.02524049
S        1.68016695       0.28147991       2.00960385       24       0.02273503      -0.00259637      -0.01691679
S        4.49159899       7.73711927      11.02321409       25      -0.02272850       0.00258536       0.01692523
S        4.76604990       7.73711926       4.50680506       26       0.02272820       0.00257961       0.01692969
S        1.40571579       0.28147956       8.52601308       27      -0.02272759      -0.00258553      -0.01692639
S        4.49159897       4.29077891      11.02321428       28      -0.02273309      -0.00259011       0.01692287
S        1.68016709       3.72781967       2.00960391       29       0.02273123       0.00258582      -0.01692380
S        1.40571576       3.72781973       8.52601307       30      -0.02272730       0.00258740      -0.01692675
S        4.76604995       4.29077863       4.50680507       31       0.02272915      -0.00258129       0.01692955
