56
Lattice="10.7619164 0.0 0.0 -9.665296305262016 4.732958053065482 0.0 -0.5483100463354086 -2.3664790220718444 10.484177494289693" Properties=species:S:1:pos:R:3:spacegroup_kinds:I:1:momenta:R:3:forces:R:3 spacegroup="P 1" unit_cell=conventional occupancy="_JSON {\"0\": {\"H\": 1}, \"1\": {\"H\": 1}, \"2\": {\"H\": 1}, \"3\": {\"H\": 1}, \"4\": {\"H\": 1}, \"5\": {\"H\": 1}, \"6\": {\"H\": 1}, \"7\": {\"H\": 1}, \"8\": {\"H\": 1}, \"9\": {\"H\": 1}, \"10\": {\"H\": 1}, \"11\": {\"H\": 1}, \"12\": {\"H\": 1}, \"13\": {\"H\": 1}, \"14\": {\"H\": 1}, \"15\": {\"H\": 1}, \"16\": {\"H\": 1}, \"17\": {\"H\": 1}, \"18\": {\"H\": 1}, \"19\": {\"H\": 1}, \"20\": {\"H\": 1}, \"21\": {\"H\": 1}, \"22\": {\"H\": 1}, \"23\": {\"H\": 1}, \"24\": {\"H\": 1}, \"25\": {\"H\": 1}, \"26\": {\"H\": 1}, \"27\": {\"H\": 1}, \"28\": {\"H\": 1}, \"29\": {\"H\": 1}, \"30\": {\"H\": 1}, \"31\": {\"H\": 1}, \"32\": {\"C\": 1}, \"33\": {\"C\": 1}, \"34\": {\"C\": 1}, \"35\": {\"C\": 1}, \"36\": {\"C\": 1}, \"37\": {\"C\": 1}, \"38\": {\"C\": 1}, \"39\": {\"C\": 1}, \"40\": {\"C\": 1}, \"41\": {\"C\": 1}, \"42\": {\"C\": 1}, \"43\": {\"C\": 1}, \"44\": {\"C\": 1}, \"45\": {\"C\": 1}, \"46\": {\"C\": 1}, \"47\": {\"C\": 1}, \"48\": {\"O\": 1}, \"49\": {\"O\": 1}, \"50\": {\"O\": 1}, \"51\": {\"O\": 1}, \"52\": {\"O\": 1}, \"53\": {\"O\": 1}, \"54\": {\"O\": 1}, \"55\": {\"O\": 1}}" energy=-313.621826171875 free_energy=-313.621826171875 stress="-0.00690539600327611 -0.0013852263800799847 -0.004504718817770481 -0.0013852263800799847 0.009439069777727127 0.005600000731647015 -0.004504718817770481 0.005600000731647015 0.013407095335423946" pbc="T T T"
H        0.49738860       1.84331591       1.77824715        0      -0.10613751      -0.09781811       0.11564618      -0.18203294       0.31331635       0.59540421
H        0.10556155      -0.11663788       8.27653499        1       0.04015968      -0.13169547       0.14437785      -0.36897451      -0.78897059       0.22591467
H        6.62289078      -0.91207606       5.20265688        2      -0.16864578       0.10450150      -0.19164241       0.98594201      -0.03108167       0.77321947
H        3.36922863       0.56254901       5.08036098        3       0.12068411      -0.12390828       0.11664138      -0.39409196      -0.59535193      -0.23536925
H        5.95301324       0.59228765       3.38812090        4       0.14111376      -0.33747125      -0.07872014      -0.93092108      -0.50391752       0.87668061
H        5.01743983       0.42520658       7.32442026        5      -0.23162748       0.06489273      -0.14197829      -0.38864645      -1.26104677      -0.47847635
H       -1.57731811       0.54128684      10.53958313        6      -0.12407226      -0.08816773      -0.07763749      -0.37742013      -0.46802336       0.30722538
H        2.69863428       2.00433359       0.26116710        7      -0.05404104       0.01557161      -0.10225805      -0.72495198      -0.67533159      -0.86530745
H       -1.22303988       1.63674016       1.75940515        8      -0.05425079       0.24253206      -0.13897935      -0.49740946      -0.09367542       0.10530797
H       -8.93359150       2.96970974       8.47514759        9      -0.06041842      -0.12559617      -0.10761833       0.36625734      -0.63054937       0.55260533
H       -2.26849154       4.25937005       6.83350083       10       0.20578889       0.12214670       0.33238136      -0.06950061      -0.47618914      -0.34377557
H       -6.68836087       4.95609512       3.39407480       11      -0.06212325       0.10325935      -0.15892871       0.13254097      -0.56484944       0.15243706
H       -3.12925475       0.32645844       3.01954341       12       0.09286549       0.17897916      -0.00989645       0.31408718       0.11226048       0.01380473
H       -6.80751072       1.79512336       7.74588642       13       0.11313602      -0.05419548      -0.04504074      -2.35592318       0.59494054      -0.52510136
H       -1.67751214       0.97559885       8.80862458       14       0.00516042      -0.30016279      -0.16851279      -0.66054314       0.17537290       0.81925941
H       -7.85157888       2.25969114       2.02092889       15       0.06193733       0.16966548       0.04108821       0.45021740       0.30493611      -0.97372806
H       -1.03679266       0.54726116       4.10971789       16       0.09384530       0.18126030      -0.07858720       0.29053724       0.47455147       0.73893273
H        1.41496424       2.60741878       5.94194785       17       0.17914746       0.16207950      -0.08142875       0.04019718      -0.18983570       0.67822582
H       -0.64058355       2.00872454       6.06364828       18      -0.05634269       0.12337109       0.04032538      -0.53551030       0.51595014      -0.09275039
H        0.85977728      -0.92446420       4.06230120       19       0.08226715       0.01615544       0.13954138      -0.43777353      -0.05474396       0.42652676
H        7.07832386       1.52716398       0.77918406       20       0.03745991       0.06298977      -0.11847484      -0.51152241      -0.36470321      -0.19009584
H       -5.65481848       2.28567682       9.73114986       21       0.07723433       0.36926487      -0.07796208       0.09997275      -0.39055657       0.05157143
H        6.08095756      -2.02800117       9.57309411       22       0.04996189       0.13992229      -0.04251325       0.10451907      -0.44054794      -0.00564297
H       -5.39307824       3.26285521       1.28813568       23      -0.08191866      -0.05415610       0.26987058      -0.86359930      -0.75485677      -0.77635372
H       -0.07299365       0.27971753       1.81917020       24       0.13898030       0.34269391       0.14181157      -0.42564142      -0.34437838       0.62044704
H       -1.06700064      -1.51563987       8.21163895       25      -0.20145932       0.01373027       0.07616465      -0.17208970      -0.24384233       0.51164412
H       -2.96209844       2.60530185       6.43440391       26       0.06315709      -0.07175093      -0.16381436       0.16210344       0.09859629       0.31126150
H       -6.35720014       3.51669276       4.57538963       27       0.16449740       0.18567802       0.02440208      -0.60310328       1.40274167      -0.34498724
H       -3.82677258       2.00991117       3.18430530       28       0.08980664      -0.11710545      -0.00472101       0.23108822       0.02061171      -0.20068282
H       -5.17636448       2.03285279       7.19923503       29       0.10905334      -0.18779750       0.15106057      -0.36808354      -0.23565008       0.74253863
H       -0.79357744       4.53174533      -0.43569592       30      -0.12627957      -0.10201480      -0.01900747      -0.09977022       0.06218686       0.11299475
H        2.31575652       1.30675581      11.36317799       31       0.12164103       0.07458615      -0.08519240       0.08103989      -0.48912072      -0.09376439
C       -0.37163612       1.38708496       3.80590668       32       0.82677682       0.29513723       0.09766034       0.43049851      -0.84296906      -2.02713227
C        0.11847916      -1.18778286       6.49983777       33      -0.62840611      -0.18736816      -0.14627995      -0.37041837       0.27215260      -0.96542120
C       -0.97555889       2.96185312       5.57576511       34      -0.36449130      -1.07571457       0.20948476       0.37155020       0.17797479       0.59155023
C        1.35011581      -0.15700493       4.68315324       35      -0.02227892       0.95830741       0.13073033       0.73833948       1.50494289       0.40339309
C        6.36784110       0.86650850       1.33870129       36       0.30590384       0.88519272       1.28776744       1.97926867      -0.30295867       0.89318049
C       -5.53677834       1.29363400       9.24627705       37       0.27688829      -0.37684235       0.66636792      -0.66257578      -0.77059031       0.58603215
C       -3.39932669       1.69730085      10.02118765       38      -0.84111711      -0.44256874       0.59809586       0.37920502       0.54998630       0.65977001
C        4.71880447       2.50518196       0.70336297       39       0.38984590       0.88224248      -0.51305314      -0.59659296       1.44275916       0.49369743
C       -0.32683936       1.26219660       2.24609227       40      -0.63947924       0.50546173       0.23424287       0.77352637       0.79704535      -0.39457417
C       -0.05210436      -1.19852049       8.01058154       41       0.11582237      -0.65736728      -0.92748102       0.85164249       1.37445581      -1.02303123
C       -2.37909934       3.46525766       6.06278729       42      -0.05353371       0.08466939      -0.15002865      -0.40585157      -0.60535240      -1.67187405
C        2.83806341      -0.17358533       4.41939547       43       0.55230033       0.76816317      -0.43149991       1.06821954      -0.67908645       0.54369450
C        6.77902025       0.98017836       2.84378924       44      -1.12307101      -0.45029374       0.26639981      -0.51441586       0.02888640      -1.28144193
C       -5.86817701       1.36776549       7.79427949       45      -0.98979941      -0.05587699      -0.83441799       2.87885666       1.13958883      -0.55467504
C       -1.97699409       1.28319939       9.85895612       46       0.40696947      -0.18668442       0.33790698       1.72741508       0.51335239      -1.56751966
C        3.19008754       2.61285366       0.97606064       47       0.25747635       0.90120823      -0.18333064       1.07156241       1.22872138       1.82996845
O       -0.85758716       2.66103183       4.11713047       48       0.61684489      -0.37118676       1.25663952      -0.17585400       0.40348548       1.06925368
O        1.08909379      -0.23997546       6.12862839       49      -0.39618351      -0.37804401      -0.11483649       0.12260189      -0.37597311      -0.82796979
O       -1.16050480      -0.72093725       5.97406333       50      -0.34983830      -1.05740268      -0.27246544      -0.47367078      -0.41498551      -0.96765608
O        1.00795482       1.19208947       4.24044428       51      -0.03057023       0.15482667      -1.24559174      -1.03327727      -0.52625471       0.63129127
O       -3.10184420       4.20162636       0.97719066       52      -0.29226477       0.28802509      -0.94690401      -0.31202072       1.32850373      -0.04797721
O        4.30825704       0.33413973       9.75623653       53       0.02704265      -1.15722732      -0.33727124      -0.25941208       0.04011792       0.50478947
O       -4.24389651       0.74756661       9.49746216       54       0.41595555      -0.82784429       0.02625966       0.13963693       0.06729718      -0.42571521
O        5.02961373       1.21054920       1.07684136       55       0.87862618       0.61974712       1.29120763      -0.01922727      -0.82934123       0.05840088
