56
Lattice="10.7619164 0.0 0.0 -9.665296305262016 4.732958053065482 0.0 -0.5483100463354086 -2.3664790220718444 10.484177494289693" Properties=species:S:1:pos:R:3:spacegroup_kinds:I:1:momenta:R:3:forces:R:3 spacegroup="P 1" unit_cell=conventional occupancy="_JSON {\"0\": {\"H\": 1}, \"1\": {\"H\": 1}, \"2\": {\"H\": 1}, \"3\": {\"H\": 1}, \"4\": {\"H\": 1}, \"5\": {\"H\": 1}, \"6\": {\"H\": 1}, \"7\": {\"H\": 1}, \"8\": {\"H\": 1}, \"9\": {\"H\": 1}, \"10\": {\"H\": 1}, \"11\": {\"H\": 1}, \"12\": {\"H\": 1}, \"13\": {\"H\": 1}, \"14\": {\"H\": 1}, \"15\": {\"H\": 1}, \"16\": {\"H\": 1}, \"17\": {\"H\": 1}, \"18\": {\"H\": 1}, \"19\": {\"H\": 1}, \"20\": {\"H\": 1}, \"21\": {\"H\": 1}, \"22\": {\"H\": 1}, \"23\": {\"H\": 1}, \"24\": {\"H\": 1}, \"25\": {\"H\": 1}, \"26\": {\"H\": 1}, \"27\": {\"H\": 1}, \"28\": {\"H\": 1}, \"29\": {\"H\": 1}, \"30\": {\"H\": 1}, \"31\": {\"H\": 1}, \"32\": {\"C\": 1}, \"33\": {\"C\": 1}, \"34\": {\"C\": 1}, \"35\": {\"C\": 1}, \"36\": {\"C\": 1}, \"37\": {\"C\": 1}, \"38\": {\"C\": 1}, \"39\": {\"C\": 1}, \"40\": {\"C\": 1}, \"41\": {\"C\": 1}, \"42\": {\"C\": 1}, \"43\": {\"C\": 1}, \"44\": {\"C\": 1}, \"45\": {\"C\": 1}, \"46\": {\"C\": 1}, \"47\": {\"C\": 1}, \"48\": {\"O\": 1}, \"49\": {\"O\": 1}, \"50\": {\"O\": 1}, \"51\": {\"O\": 1}, \"52\": {\"O\": 1}, \"53\": {\"O\": 1}, \"54\": {\"O\": 1}, \"55\": {\"O\": 1}}" energy=-315.20623779296875 free_energy=-315.20623779296875 stress="0.0015260083600878716 -0.000734946399461478 -5.770507982560957e-07 -0.000734946399461478 -0.0014768315013498068 5.072912756531878e-08 -5.770507982560957e-07 5.072912756531878e-08 0.0016979989595711231" pbc="T T T"
H       -0.01248427       2.27696696       1.83153339        0       0.26354636       0.05758816       0.17128558       0.07122792       0.02707781       0.05251731
H        0.46428407      -0.32702137       8.65264411        1       0.35723632       0.30052336      -0.15421514      -0.05205495       0.05564449      -0.05251558
H        7.11696904      -0.62167877       5.76820574        2       0.13651140      -0.03657588      -0.02448058       0.06071850       0.02959773      -0.06332479
H        3.54843712       0.20514534       4.71597175        3       0.04495575       0.01373704       0.24194406      -0.04159942       0.05318656       0.06330290
H        5.94175252       0.08951207       3.41055536        4       0.10004105       0.00919574       0.06893732      -0.07122751      -0.02707771      -0.05251808
H        4.91667413       0.32702137       7.07362213        5       0.03762731       0.23702154      -0.03633186       0.05205639      -0.05563796       0.05251977
H       -1.73601084       0.62167878       9.95806050        6       0.04090260      -0.15000140      -0.41043770      -0.06071856      -0.02958655       0.06332491
H        2.38083113       2.16133369       0.52611700        7       0.07639930       0.13373956      -0.11953039       0.04159757      -0.05318551      -0.06330162
H       -1.38564785       1.18011340       2.11584331        8       0.34764813      -0.24942510       0.01968671       0.00912143       0.09641409       0.00989635
H       -8.45014457       2.81694541       8.36833418        9      -0.04487542       0.24826795       0.27191556       0.03391334       0.09078105      -0.00994032
H       -2.58250803       2.70418269       6.85836100       10       0.00836639       0.05472545      -0.13232917       0.03144361       0.09145406       0.01228203
H       -6.70499477       3.65935988       3.62581649       11      -0.35280026      -0.06406840       0.05024236       0.01202217       0.09588304      -0.01239146
H       -3.44700030       1.18636563       3.12624543       12       0.17759995       0.19181929      -0.04741865      -0.00912211      -0.09641404      -0.00989521
H       -6.59610993       1.91601265       7.35793206       13      -0.06659844      -0.18039638      -0.21144164      -0.03391603      -0.09078149       0.00994122
H       -1.70183007       2.02877537       8.86790524       14      -0.29590695       0.31510437      -0.07166042      -0.03144044      -0.09144850      -0.01229304
H       -7.79294969       3.44007720       1.61627226       15      -0.10166361      -0.21365327       0.15571300      -0.01202458      -0.09588423       0.01238998
H       -0.77544238       0.72057867       4.36236141       16      -0.29135246      -0.04383699      -0.13778795      -0.05580270      -0.06497616       0.06553186
H        1.56164860       2.67260202       6.12181608       17       0.04513471      -0.09416448      -0.19034861       0.02151189      -0.08285755      -0.06550546
H       -0.46393564       1.89516633       6.16016720       18      -0.02388752       0.06229365       0.02104621       0.04679086      -0.08891311       0.03981787
H        0.70181139      -0.86845994       4.32401029       19       0.02574107      -0.11427781      -0.05287528      -0.08095911      -0.05914084      -0.03975108
H        6.70471062       1.64590036       0.87972733       20      -0.14286290      -0.07079985      -0.14118650       0.05580543       0.06498128      -0.06553422
H       -5.84598670       2.06035604       9.60445016       21      -0.29753233       0.02254640      -0.04431235      -0.02151369       0.08285350       0.06550317
H        5.84489385      -1.89516633       9.56609904       22      -0.28312851       0.06560536      -0.15494221      -0.04679287       0.08891503      -0.03981581
H       -5.53445954       3.23493897       0.91807845       23      -0.02208037       0.11416853       0.04301970       0.08095746       0.05914002       0.03974699
H        0.25131050       0.51347389       1.94957474       24       0.15959789      -0.21361364       0.07505588      -0.00851092      -0.01871589      -0.03717747
H       -0.54820374      -1.79480395       8.53460275       25      -0.12868866      -0.15316038      -0.08588331      -0.00032987      -0.02044768       0.03709323
H       -2.80766320       2.46899490       5.11315433       26      -0.07305533       0.00146869      -0.17781296      -0.04083840      -0.01125243       0.00405144
H       -6.60619587       3.34910738       5.37102316       27       0.12888264       0.07074453      -0.23064715       0.03167329      -0.02802489      -0.00411321
H       -5.08395866       1.85300514       3.29251401       28       0.22099581       0.30740365       0.21601993       0.00851497       0.01871280       0.03717742
H       -4.83275446       1.79480396       7.19166349       29      -0.04673026      -0.18471461       0.19482948       0.00034727       0.02045785      -0.03709795
H       -0.92836486       4.63044218       0.12893441       30      -0.09883902       0.19431951       0.04569436       0.04083322       0.01124334      -0.00406402
H        2.32185777       1.38385068      10.35524308       31       0.15211596       0.04921952       0.12080102      -0.03167601       0.02802758       0.00411054
C       -0.12835063       1.44534837       3.84841655       32      -0.28778073       0.91754073       0.18270710      -0.01445521       0.09213285      -0.08206782
C        0.20260826      -1.12485611       6.63576095       33       0.00096406       0.97078231      -0.67128192       0.05361477       0.07627407       0.08205798
C       -0.77226604       2.84130358       5.69336968       34      -0.96473690       0.45234422      -0.54337998      -0.06051260       0.10292932       0.03487851
C        1.39483372      -0.15433229       4.79080781       35       0.83737779      -0.34833687      -0.35976593       0.09947491       0.06571116      -0.03489218
C        6.05761888       0.92113066       1.39367220       36       0.73780001       0.71679960       1.01054651       0.01444757      -0.09213759       0.08206868
C       -5.58356646       1.12485611       9.09050530       37       0.36600935      -0.57579551       1.35161317      -0.05360149      -0.07626306      -0.08206093
C       -3.51207206       1.89165448      10.03289656       38      -0.27702103       0.36712178       0.74445208       0.06052509      -0.10293388      -0.03488930
C        4.53443453       2.52081132       0.45128094       39      -0.47025582       0.22782501       0.51146167      -0.09947214      -0.06571931       0.03490323
C       -0.32593927       1.35886302       2.34265801       40      -0.11966996      -0.73251108       0.28611321      -0.02487570      -0.04884152       0.03836723
C        0.34202778      -1.28942579       8.14151949       41       0.57030904      -0.50578053       0.01064034       0.00090585      -0.05509168      -0.03821129
C       -2.26824862       3.05565688       5.86632716       42      -0.48098077       0.96238649       0.55365818       0.02524380      -0.06073721       0.01393145
C        2.83264719      -0.61974062       4.61785033       43      -0.04860277      -0.55844948       0.33742963      -0.04931979      -0.04330948      -0.01374370
C        6.25520752       1.00761601       2.89943074       44      -0.70747446      -0.11378709      -0.42767829       0.02487074       0.04884419      -0.03836676
C       -5.72298598       1.28942580       7.58474676       45       0.19434055       0.24831833       0.14297097      -0.00092375       0.05507490       0.03821298
C       -2.01608948       1.67730118       9.85993908       46       0.09740524      -0.72425149      -0.69205550      -0.02525552       0.06073171      -0.01390007
C        3.09662106       2.98621965       0.62423841       47      -0.12331172      -0.02208015       0.38636924       0.04932790       0.04330617       0.01374362
O       -0.42625656       2.75924355       4.28180099       48       1.20625674       0.48604619      -0.44497158       0.00566975      -0.06416649       0.01081729
O        1.04798334      -0.07585512       6.20237650       49       0.42305791      -1.01659881      -0.20166176      -0.03317390      -0.05508685      -0.01086332
O       -1.17294689      -0.80803189       6.28015861       50      -0.36133290       0.99731317      -0.30860065      -0.00324715      -0.06212865      -0.01994114
O        1.24638404       1.12493657       4.20401888       51      -0.92624698      -0.21254257      -0.34164539      -0.02462111      -0.05716497       0.01989309
O       -3.30977150       4.34019353       0.96028775       52       0.26500009      -0.83301049      -0.49473951      -0.00567095       0.06416607      -0.01082068
O        4.33297486       0.07585512       9.52388974       53      -0.48283211      -0.49689578       1.25894465       0.03316840       0.05508527       0.01086741
O       -4.20801131       0.80803190       9.44610763       54       0.43498781      -0.06064940      -0.51538975       0.00324634       0.06213039       0.01994601
O        4.68288421       1.24154246       1.03806987       55       0.06343698      -0.82659266      -1.04828579       0.02462566       0.05716959      -0.01989757
56
Lattice="10.7619164 0.0 0.0 -9.665296305262016 4.732958053065482 0.0 -0.5483100463354086 -2.3664790220718444 10.484177494289693" Properties=species:S:1:pos:R:3:spacegroup_kinds:I:1:momenta:R:3:forces:R:3 spacegroup="P 1" unit_cell=conventional occupancy="_JSON {\"0\": {\"H\": 1}, \"1\": {\"H\": 1}, \"2\": {\"H\": 1}, \"3\": {\"H\": 1}, \"4\": {\"H\": 1}, \"5\": {\"H\": 1}, \"6\": {\"H\": 1}, \"7\": {\"H\": 1}, \"8\": {\"H\": 1}, \"9\": {\"H\": 1}, \"10\": {\"H\": 1}, \"11\": {\"H\": 1}, \"12\": {\"H\": 1}, \"13\": {\"H\": 1}, \"14\": {\"H\": 1}, \"15\": {\"H\": 1}, \"16\": {\"H\": 1}, \"17\": {\"H\": 1}, \"18\": {\"H\": 1}, \"19\": {\"H\": 1}, \"20\": {\"H\": 1}, \"21\": {\"H\": 1}, \"22\": {\"H\": 1}, \"23\": {\"H\": 1}, \"24\": {\"H\": 1}, \"25\": {\"H\": 1}, \"26\": {\"H\": 1}, \"27\": {\"H\": 1}, \"28\": {\"H\": 1}, \"29\": {\"H\": 1}, \"30\": {\"H\": 1}, \"31\": {\"H\": 1}, \"32\": {\"C\": 1}, \"33\": {\"C\": 1}, \"34\": {\"C\": 1}, \"35\": {\"C\": 1}, \"36\": {\"C\": 1}, \"37\": {\"C\": 1}, \"38\": {\"C\": 1}, \"39\": {\"C\": 1}, \"40\": {\"C\": 1}, \"41\": {\"C\": 1}, \"42\": {\"C\": 1}, \"43\": {\"C\": 1}, \"44\": {\"C\": 1}, \"45\": {\"C\": 1}, \"46\": {\"C\": 1}, \"47\": {\"C\": 1}, \"48\": {\"O\": 1}, \"49\": {\"O\": 1}, \"50\": {\"O\": 1}, \"51\": {\"O\": 1}, \"52\": {\"O\": 1}, \"53\": {\"O\": 1}, \"54\": {\"O\": 1}, \"55\": {\"O\": 1}}" energy=-314.163330078125 free_energy=-314.163330078125 stress="0.0017965107690542936 -0.006295052822679281 0.004064944572746754 -0.006295052822679281 0.0028975834138691425 0.006800164934247732 0.004064944572746754 0.006800164934247732 -0.004473699722439051" pbc="T T T"
H        0.12223865       2.21335576       1.84744825        0      -0.06388221      -0.04107986      -0.23331092      -0.34890473      -0.46717727       0.26391590
H        0.31702076      -0.21474888       8.50409130        1      -0.41596667       0.28241787       0.13417990       0.19316748      -0.82259071      -0.04442012
H        7.16689582      -0.52337019       5.79422138        2      -0.01099330       0.09115172       0.18553092      -0.25331581       0.53085154      -0.08150329
H        3.56769342       0.19128014       4.81695805        3       0.00635031       0.03106388      -0.05661327      -0.45246926      -0.59983283       0.03513668
H        5.89857398       0.12906189       3.45590355        4      -0.13662962       0.06346626       0.07412541      -0.11012552      -0.04154302      -0.10463403
H        5.01440544       0.32414388       7.14335940        5       0.11996966      -0.01313393       0.16304602      -0.17231151      -0.44180560      -0.12289548
H       -1.69404177       0.62953434       9.70230161        6      -0.06773582       0.00953635      -0.07983913      -0.29939771      -0.31745803       0.05525979
H        2.37945901       2.25462940       0.31381000        7      -0.10899686       0.12801576      -0.23887808      -0.36569819      -0.41983554      -0.02494424
H       -1.28062217       1.09681355       2.00394186        8       0.10394091       0.17626284      -0.14567629      -0.56132591      -0.12197556      -0.18949634
H       -8.36548930       3.00985761       8.44664940        9       0.01874384       0.07750811      -0.14054398       0.39231971      -0.31946766      -0.01170081
H       -2.54664928       2.78893572       6.82205309       10       0.03048604       0.25775606      -0.04488787      -0.41237256      -0.20837820       1.19028497
H       -6.74143403       3.80633210       3.57290632       11       0.32050264       0.15943885       0.02898776       0.31104076       0.03237038       0.37734854
H       -3.41360540       1.09458054       3.05616295       12       0.34318387      -0.23802475       0.07743259      -0.50853956       0.08234678       0.33156091
H       -6.59466945       1.88031615       7.31880477       13       0.01536668       0.03548309       0.08656131      -0.08189661      -0.12137131       0.20796552
H       -1.92963187       2.16013649       8.81427838       14       0.12531096      -0.02323609      -0.06973074       0.40313575      -0.12264633      -0.32056549
H       -7.86690875       3.29972357       1.71696124       15      -0.08477298      -0.03159832       0.12293904      -0.01434018      -0.41004455      -0.77136385
H       -0.90235487       0.77646754       4.33988640       16      -0.08685994      -0.05814799       0.28342557       0.40912485       0.11714657       0.19912380
H        1.57326846       2.69585855       6.02312949       17       0.00715134      -0.12380871      -0.16254812      -0.29899070      -0.23122938       0.25480515
H       -0.61632289       1.91476309       6.12879311       18      -0.08876038       0.01924340      -0.05101229       0.36619511      -0.32495469       0.18464807
H        0.76835889      -0.91704689       4.28843429       19      -0.15605134       0.01894761       0.06988650      -0.03238270       0.22899693       0.08527187
H        6.70609327       1.62092020       0.91686459       20       0.01929250      -0.19191450       0.26163558       0.76997548       0.63578236      -0.47934884
H       -5.82009076       2.01052708       9.75507012       21       0.30326580       0.03656584       0.14022306      -0.00922723      -0.03740937      -0.50983858
H        5.81093418      -1.87039274       9.61285223       22       0.20657595       0.20659815      -0.02039147       0.37428102      -0.52969146       0.33497986
H       -5.59543449       3.24736138       1.04015516       23      -0.04224146      -0.11354988       0.21265882       0.13948476      -0.29077193      -0.10894191
H        0.42784599       0.48710588       2.10176745       24       0.30049771      -0.13610987      -0.00468383      -0.59484428       0.09816410      -0.19185212
H       -0.53518867      -1.77813118       8.52127415       25       0.00655520       0.08690812       0.10595506       0.65831614      -0.06782646      -0.13440451
H       -2.96285663       2.59157643       5.13270581       26      -0.25300672       0.03340903       0.06572302       0.52107185       0.35914665       0.31286669
H       -6.55716745       3.24215835       5.23786852       27      -0.16752541      -0.02805325      -0.10766344       0.03742082      -0.88643515       0.79596221
H       -5.03685280       1.93128221       3.36334312       28      -0.15021153       0.12582540      -0.10191880       0.62859142      -0.83863300      -0.54655433
H       -4.85344602       1.77016485       7.27072604       29      -0.06649185       0.16884060       0.01181293       1.25072980       0.88673449      -0.39224637
H       -0.86175595       4.56432675       0.03964646       30       0.17846380      -0.19144303      -0.07943204      -0.39176089      -0.36752319      -0.55813330
H        2.38301369       1.54051148      10.51636395       31      -0.19060835       0.01911297       0.25222917       0.14690995      -0.16933975       0.11266196
C       -0.17581897       1.46226533       3.84974165       32      -0.18515668      -0.57459564      -0.22058201       0.27883103      -0.44003248       0.08531669
C        0.22192600      -1.12504879       6.58997345       33      -0.07512331      -0.46550160       0.08488182      -0.55275756      -0.80494487       0.23250571
C       -0.84336858       2.87265025       5.66245298       34       0.04319852       0.29158533      -0.23378191       1.13017845       0.50398970      -0.24388626
C        1.43229075      -0.18392811       4.79404744       35      -0.39846582      -0.16641810      -0.07506733      -1.39262545       0.15177760      -0.49470389
C        6.06713488       0.93900034       1.43224267       36      -0.39497136      -0.32073259      -0.80955191      -1.35844016      -1.50483370      -0.67591864
C       -5.58329451       1.10380716       9.15771828       37      -0.36193231      -0.01752098       0.07000786      -0.01275473       0.62094891      -0.17375463
C       -3.52181740       1.89477509      10.09402552       38       0.16177555      -0.52863235       0.28467019       0.13258377       0.16549917      -2.07575369
C        4.51640584       2.52102927       0.51005713       39       0.36138360      -0.43527625       0.58505082       0.14679089       0.12096035       0.07939567
C       -0.28405293       1.30051715       2.35611375       40       0.19195166      -0.55821619       0.03644860       1.44869947       0.72396982      -0.52214837
C        0.37449211      -1.27541847       8.11748206       41       0.14753565       0.49373633      -0.46888093      -1.73077798       1.54831553      -0.36517036
C       -2.30636825       3.14844780       5.85186587       42      -0.25949192       1.26103899      -0.54787161      -0.30482662      -0.37170494      -1.63763177
C        2.84200269      -0.65064887       4.64737901       43       0.56034538      -0.10141600      -0.32885518       0.85266048       1.99939489      -1.91114008
C        6.24443652       1.02088160       2.92126917       44       0.40080578      -0.06552319       0.31202143       0.30223823       0.54349893       0.34550428
C       -5.72072981       1.29321541       7.63361805       45      -0.11247015      -0.13664557       1.05760893      -1.14459801      -0.53769886       0.96596229
C       -2.05012739       1.65516314       9.77267022       46      -0.47453607       0.69520750      -0.54057381       0.62453234       1.48065162       1.00712657
C        3.08351631       3.00246314       0.64822752       47      -0.01605112       0.11556193       0.01381026       0.20966232       0.51370865       0.80869937
O       -0.35411232       2.78763683       4.26978768       48       0.22350744       0.25056269       0.25663328      -1.10039806       0.01685572       0.20638035
O        1.06167984      -0.11984226       6.16496940       49      -0.16821848      -0.55392448      -0.45958742       0.11151959       0.85498297       0.49101341
O       -1.21357942      -0.78977939       6.25156088       50      -0.33543356      -0.44277479      -0.25066818       0.73390633      -0.39541644       0.41342306
O        1.20697421       1.13024275       4.19342497       51       0.17004621       0.12777101       0.14454295       0.59316236      -1.04898620       0.70126700
O       -3.31489246       4.29054001       0.93958223       52      -0.41183546      -0.17658502       0.40053867      -0.10514109       0.93135226       2.17608929
O        4.33821577       0.06296654       9.62059751       53       0.35992277       0.45633112       0.21462748       0.43338260       0.52332324      -1.13898265
O       -4.17202258       0.83010248       9.41381797       54       0.02043461       0.24051363      -0.02777883      -0.78840923      -0.43916118       0.27765074
O        4.70668948       1.20000077       0.96656717       55       0.53785616      -0.22599749      -0.23686557      -0.20128003       0.02995062       1.29980838
56
Lattice="10.7619164 0.0 0.0 -9.665296305262016 4.732958053065482 0.0 -0.5483100463354086 -2.3664790220718444 10.484177494289693" Properties=species:S:1:pos:R:3:spacegroup_kinds:I:1:momenta:R:3:forces:R:3 spacegroup="P 1" unit_cell=conventional occupancy="_JSON {\"0\": {\"H\": 1}, \"1\": {\"H\": 1}, \"2\": {\"H\": 1}, \"3\": {\"H\": 1}, \"4\": {\"H\": 1}, \"5\": {\"H\": 1}, \"6\": {\"H\": 1}, \"7\": {\"H\": 1}, \"8\": {\"H\": 1}, \"9\": {\"H\": 1}, \"10\": {\"H\": 1}, \"11\": {\"H\": 1}, \"12\": {\"H\": 1}, \"13\": {\"H\": 1}, \"14\": {\"H\": 1}, \"15\": {\"H\": 1}, \"16\": {\"H\": 1}, \"17\": {\"H\": 1}, \"18\": {\"H\": 1}, \"19\": {\"H\": 1}, \"20\": {\"H\": 1}, \"21\": {\"H\": 1}, \"22\": {\"H\": 1}, \"23\": {\"H\": 1}, \"24\": {\"H\": 1}, \"25\": {\"H\": 1}, \"26\": {\"H\": 1}, \"27\": {\"H\": 1}, \"28\": {\"H\": 1}, \"29\": {\"H\": 1}, \"30\": {\"H\": 1}, \"31\": {\"H\": 1}, \"32\": {\"C\": 1}, \"33\": {\"C\": 1}, \"34\": {\"C\": 1}, \"35\": {\"C\": 1}, \"36\": {\"C\": 1}, \"37\": {\"C\": 1}, \"38\": {\"C\": 1}, \"39\": {\"C\": 1}, \"40\": {\"C\": 1}, \"41\": {\"C\": 1}, \"42\": {\"C\": 1}, \"43\": {\"C\": 1}, \"44\": {\"C\": 1}, \"45\": {\"C\": 1}, \"46\": {\"C\": 1}, \"47\": {\"C\": 1}, \"48\": {\"O\": 1}, \"49\": {\"O\": 1}, \"50\": {\"O\": 1}, \"51\": {\"O\": 1}, \"52\": {\"O\": 1}, \"53\": {\"O\": 1}, \"54\": {\"O\": 1}, \"55\": {\"O\": 1}}" energy=-313.85382080078125 free_energy=-313.85382080078125 stress="0.013761459849774837 -0.004879415035247803 -0.005674294196069241 -0.004879415035247803 0.006163799203932285 0.0054761082865297794 -0.005674294196069241 0.0054761082865297794 -0.001812874455936253" pbc="T T T"
H        0.15152028       2.21865808       1.86996604        0       0.18670823      -0.17536457       0.06887287      -0.25462797      -0.83074999       0.05804658
H        0.10920513      -0.19334258       8.62244505        1      -0.00897887       0.26460718      -0.03107039       0.20135947      -1.45994377      -1.01799440
H        7.15516438      -0.39883633       5.76710616        2       0.22383246       0.15937054      -0.34067676       0.18644577       0.19728252      -0.26340422
H        3.55287381       0.14212041       5.10648285        3      -0.16824448      -0.25377452       0.22539381      -0.53552777      -0.32389766      -0.69896114
H        5.71904805       0.28007960       3.48878615        4      -0.14175106       0.06957633       0.07981266      -0.42629355      -0.45673674       0.12704763
H        5.07217437       0.33732700       7.23278701        5      -0.02221069       0.07819951       0.03358475       0.14585111      -0.33883464      -0.34743756
H       -1.86337460       0.61454906       9.70908649        6       0.00209973      -0.06951298       0.02682897       0.35397276       0.27212775       0.03442163
H        2.40409157       2.23500124       0.27412506        7      -0.05904476      -0.08227810      -0.03197368       0.20295031       0.43273562      -0.32657343
H       -1.27779549       1.10993530       2.00836775        8      -0.09536211      -0.13044339       0.02708141      -0.83864725       0.04003130      -0.43664861
H       -8.33962583       3.21420928       8.35225621        9       0.17273540       0.29406306      -0.08361808       0.23365338       0.22766279      -0.09218635
H       -2.54133521       3.01261333       6.85842849       10       0.10491071       0.07367829       0.12018001      -0.11241028      -0.33224359       0.81576514
H       -6.39093364       3.84895162       3.60576963       11       0.14443634       0.00657648      -0.00789864      -0.26307482       0.31059796      -0.29987469
H       -3.37778191       0.94136175       3.24468004       12       0.01522263      -0.07500946       0.19342093      -1.33400393      -0.10755529      -0.76893103
H       -6.68609548       1.78694182       7.51153391       13      -0.08667864      -0.27258680      -0.01170158      -0.20094833      -0.13165164      -0.15521456
H       -1.76453237       2.05976708       8.70170581       14       0.02189833      -0.10309616       0.09738864      -0.31269535       0.19350301       0.31044072
H       -7.95446005       3.02340548       1.79564975       15      -0.04973566      -0.11226850       0.02076915       0.41189548       0.38057655      -1.18562245
H       -0.80018667       0.77039122       4.49092959       16       0.00831340      -0.06072631      -0.00660567       0.00096925       0.17438680      -0.99411511
H        1.44500770       2.50713088       6.17382278       17       0.01225020      -0.28997428      -0.01209815       0.24866399       1.14403427       0.13491310
H       -0.56090752       1.92546787       6.04306254       18       0.00912434       0.02953071      -0.02228987      -0.35387096      -0.16754873       0.13082872
H        0.67939902      -0.89355051       4.27079634       19       0.07644915      -0.05095167      -0.04691392       0.30057624      -0.10529462      -0.07734935
H        6.74714464       1.49845921       0.85340926       20      -0.11245910      -0.08927515      -0.22057010       0.51641029       1.18712294      -0.49471211
H       -5.80988207       2.10952447       9.71365897       21      -0.20491568       0.06817188      -0.10894787       0.02467458      -0.34780324      -0.22419575
H        5.87596092      -1.83571099       9.70363731       22      -0.16165003       0.07076725       0.03590484      -0.15178916      -0.88951528      -0.00086609
H       -5.50015880       3.11440190       1.13784151       23       0.11933138       0.03126391      -0.00442129      -0.11864763       0.35621199      -0.32354712
H        0.36855202       0.33657772       1.99417357       24      -0.04607106      -0.23447335      -0.15432092      -1.04204226       1.71019280       0.43702191
H       -0.32413905      -2.00709548       8.53026261       25       0.20338961      -0.17844386      -0.18322080       0.05246969       0.67889464      -0.27905568
H       -3.08714247       2.74677622       5.19721872       26      -0.01915527       0.07455417      -0.09249922       0.58998209       0.03474037       0.12558171
H       -6.69673476       3.25872587       5.21696373       27      -0.09696512      -0.06688942      -0.04755591       0.17544231      -1.07494140       0.50442845
H       -4.83143355       2.04721353       3.16449861       28       0.33766954       0.12941273       0.00705001       0.39477935      -1.34767687      -0.01897373
H       -4.93754009       1.99042854       7.37634372       29       0.05869096       0.23203838       0.01089275      -0.29874164      -0.47476757      -0.05642285
H       -0.81005385       4.51876383       0.00822833       30      -0.20155763       0.23295189      -0.03457212      -0.26692766      -0.02007625      -0.48483682
H        2.48120421       1.62674276      10.66760473       31       0.30393426      -0.01816216       0.05312332      -0.25146621      -0.60053051       0.38425463
C       -0.17497681       1.41202889       3.81608588       32       0.11041242      -0.26316028      -0.10980224       0.95673001       0.41550416       1.33581173
C        0.16861399      -1.18805867       6.60335742       33      -0.76776834       0.02200102       0.67404031      -0.22194299       0.09041008      -0.69299829
C       -0.81165542       2.89924226       5.59186422       34      -0.05282366       0.32732962      -0.63230707      -1.19237399      -0.34071273       0.60170007
C        1.38527142      -0.18167027       4.74198782       35       0.10269940       0.21879208      -0.68694718       0.81693876      -0.55123842      -0.59415716
C        6.06620574       0.86818198       1.37965232       36       0.53230825      -0.54626166       0.08532789      -0.00823183      -0.53997231       1.85034382
C       -5.59710015       1.15461055       9.17270546       37       0.05871175       1.06856471       0.55336388       0.70455062       0.84736335       1.79725492
C       -3.48648164       1.86752584      10.06803999       38       0.30032606       0.37939436      -0.58623082      -0.95997119       1.52576542      -0.53065741