56
Lattice="10.7619164 0.0 0.0 -9.665296305262016 4.732958053065482 0.0 -0.5483100463354086 -2.3664790220718444 10.484177494289693" Properties=species:S:1:pos:R:3:spacegroup_kinds:I:1:forces:R:3 spacegroup="P 1" unit_cell=conventional occupancy="_JSON {\"0\": {\"H\": 1}, \"1\": {\"H\": 1}, \"2\": {\"H\": 1}, \"3\": {\"H\": 1}, \"4\": {\"H\": 1}, \"5\": {\"H\": 1}, \"6\": {\"H\": 1}, \"7\": {\"H\": 1}, \"8\": {\"H\": 1}, \"9\": {\"H\": 1}, \"10\": {\"H\": 1}, \"11\": {\"H\": 1}, \"12\": {\"H\": 1}, \"13\": {\"H\": 1}, \"14\": {\"H\": 1}, \"15\": {\"H\": 1}, \"16\": {\"H\": 1}, \"17\": {\"H\": 1}, \"18\": {\"H\": 1}, \"19\": {\"H\": 1}, \"20\": {\"H\": 1}, \"21\": {\"H\": 1}, \"22\": {\"H\": 1}, \"23\": {\"H\": 1}, \"24\": {\"H\": 1}, \"25\": {\"H\": 1}, \"26\": {\"H\": 1}, \"27\": {\"H\": 1}, \"28\": {\"H\": 1}, \"29\": {\"H\": 1}, \"30\": {\"H\": 1}, \"31\": {\"H\": 1}, \"32\": {\"C\": 1}, \"33\": {\"C\": 1}, \"34\": {\"C\": 1}, \"35\": {\"C\": 1}, \"36\": {\"C\": 1}, \"37\": {\"C\": 1}, \"38\": {\"C\": 1}, \"39\": {\"C\": 1}, \"40\": {\"C\": 1}, \"41\": {\"C\": 1}, \"42\": {\"C\": 1}, \"43\": {\"C\": 1}, \"44\": {\"C\": 1}, \"45\": {\"C\": 1}, \"46\": {\"C\": 1}, \"47\": {\"C\": 1}, \"48\": {\"O\": 1}, \"49\": {\"O\": 1}, \"50\": {\"O\": 1}, \"51\": {\"O\": 1}, \"52\": {\"O\": 1}, \"53\": {\"O\": 1}, \"54\": {\"O\": 1}, \"55\": {\"O\": 1}}" energy=-315.20623779296875 free_energy=-315.20623779296875 stress="0.0015260083600878716 -0.000734946399461478 -5.770507982560957e-07 -0.000734946399461478 -0.0014768315013498068 5.072912756531878e-08 -5.770507982560957e-07 5.072912756531878e-08 0.0016979989595711231" pbc="T T T"
H       -0.01248427       2.27696696       1.83153339        0       0.07122792       0.02707781       0.05251731
H        0.46428407      -0.32702137       8.65264411        1      -0.05205495       0.05564449      -0.05251558
H        7.11696904      -0.62167877       5.76820574        2       0.06071850       0.02959773      -0.06332479
H        3.54843712       0.20514534       4.71597175        3      -0.04159942       0.05318656       0.06330290
H        5.94175252       0.08951207       3.41055536        4      -0.07122751      -0.02707771      -0.05251808
H        4.91667413       0.32702137       7.07362213        5       0.05205639      -0.05563796       0.05251977
H       -1.73601084       0.62167878       9.95806050        6      -0.06071856      -0.02958655       0.06332491
H        2.38083113       2.16133369       0.52611700        7       0.04159757      -0.05318551      -0.06330162
H       -1.38564785       1.18011340       2.11584331        8       0.00912143       0.09641409       0.00989635
H       -8.45014457       2.81694541       8.36833418        9       0.03391334       0.09078105      -0.00994032
H       -2.58250803       2.70418269       6.85836100       10       0.03144361       0.09145406       0.01228203
H       -6.70499477       3.65935988       3.62581649       11       0.01202217       0.09588304      -0.01239146
H       -3.44700030       1.18636563       3.12624543       12      -0.00912211      -0.09641404      -0.00989521
H       -6.59610993       1.91601265       7.35793206       13      -0.03391603      -0.09078149       0.00994122
H       -1.70183007       2.02877537       8.86790524       14      -0.03144044      -0.09144850      -0.01229304
H       -7.79294969       3.44007720       1.61627226       15      -0.01202458      -0.09588423       0.01238998
H       -0.77544238       0.72057867       4.36236141       16      -0.05580270      -0.06497616       0.06553186
H        1.56164860       2.67260202       6.12181608       17       0.02151189      -0.08285755      -0.06550546
H       -0.46393564       1.89516633       6.16016720       18       0.04679086      -0.08891311       0.03981787
H        0.70181139      -0.86845994       4.32401029       19      -0.08095911      -0.05914084      -0.03975108
H        6.70471062       1.64590036       0.87972733       20       0.05580543       0.06498128      -0.06553422
H       -5.84598670       2.06035604       9.60445016       21      -0.02151369       0.08285350       0.06550317
H        5.84489385      -1.89516633       9.56609904       22      -0.04679287       0.08891503      -0.03981581
H       -5.53445954       3.23493897       0.91807845       23       0.08095746       0.05914002       0.03974699
H        0.25131050       0.51347389       1.94957474       24      -0.00851092      -0.01871589      -0.03717747
H       -0.54820374      -1.79480395       8.53460275       25      -0.00032987      -0.02044768       0.03709323
H       -2.80766320       2.46899490       5.11315433       26      -0.04083840      -0.01125243       0.00405144
H       -6.60619587       3.34910738       5.37102316       27       0.03167329      -0.02802489      -0.00411321
H       -5.08395866       1.85300514       3.29251401       28       0.00851497       0.01871280       0.03717742
H       -4.83275446       1.79480396       7.19166349       29       0.00034727       0.02045785      -0.03709795
H       -0.92836486       4.63044218       0.12893441       30       0.04083322       0.01124334      -0.00406402
H        2.32185777       1.38385068      10.35524308       31      -0.03167601       0.02802758       0.00411054
C       -0.12835063       1.44534837       3.84841655       32      -0.01445521       0.09213285      -0.08206782
C        0.20260826      -1.12485611       6.63576095       33       0.05361477       0.07627407       0.08205798
C       -0.77226604       2.84130358       5.69336968       34      -0.06051260       0.10292932       0.03487851
C        1.39483372      -0.15433229       4.79080781       35       0.09947491       0.06571116      -0.03489218
C        6.05761888       0.92113066       1.39367220       36       0.01444757      -0.09213759       0.08206868
C       -5.58356646       1.12485611       9.09050530       37      -0.05360149      -0.07626306      -0.08206093
C       -3.51207206       1.89165448      10.03289656       38       0.06052509      -0.10293388      -0.03488930
C        4.53443453       2.52081132       0.45128094       39      -0.09947214      -0.06571931       0.03490323
C       -0.32593927       1.35886302       2.34265801       40      -0.02487570      -0.04884152       0.03836723
C        0.34202778      -1.28942579       8.14151949       41       0.00090585      -0.05509168      -0.03821129
C       -2.26824862       3.05565688       5.86632716       42       0.02524380      -0.06073721       0.01393145
C        2.83264719      -0.61974062       4.61785033       43      -0.04931979      -0.04330948      -0.01374370
C        6.25520752       1.00761601       2.89943074       44       0.02487074       0.04884419      -0.03836676
C       -5.72298598       1.28942580       7.58474676       45      -0.00092375       0.05507490       0.03821298
C       -2.01608948       1.67730118       9.85993908       46      -0.02525552       0.06073171      -0.01390007
C        3.09662106       2.98621965       0.62423841       47       0.04932790       0.04330617       0.01374362
O       -0.42625656       2.75924355       4.28180099       48       0.00566975      -0.06416649       0.01081729
O        1.04798334      -0.07585512       6.20237650       49      -0.03317390      -0.05508685      -0.01086332
O       -1.17294689      -0.80803189       6.28015861       50      -0.00324715      -0.06212865      -0.01994114
O        1.24638404       1.12493657       4.20401888       51      -0.02462111      -0.05716497       0.01989309
O       -3.30977150       4.34019353       0.96028775       52      -0.00567095       0.06416607      -0.01082068
O        4.33297486       0.07585512       9.52388974       53       0.03316840       0.05508527       0.01086741
O       -4.20801131       0.80803190       9.44610763       54       0.00324634       0.06213039       0.01994601
O        4.68288421       1.24154246       1.03806987       55       0.02462566       0.05716959      -0.01989757
