32
Lattice="6.17176593 0.0 0.0 0.0 8.01859859 0.0 0.0 0.0 13.03281824" Properties=species:S:1:pos:R:3:spacegroup_kinds:I:1:forces:R:3 spacegroup="P 1" unit_cell=conventional occupancy="_JSON {\"0\": {\"Li\": 1}, \"1\": {\"Li\": 1}, \"2\": {\"Li\": 1}, \"3\": {\"Li\": 1}, \"4\": {\"Li\": 1}, \"5\": {\"Li\": 1}, \"6\": {\"Li\": 1}, \"7\": {\"Li\": 1}, \"8\": {\"Li\": 1}, \"9\": {\"Li\": 1}, \"10\": {\"Li\": 1}, \"11\": {\"Li\": 1}, \"12\": {\"P\": 1}, \"13\": {\"P\": 1}, \"14\": {\"P\": 1}, \"15\": {\"P\": 1}, \"16\": {\"S\": 1}, \"17\": {\"S\": 1}, \"18\": {\"S\": 1}, \"19\": {\"S\": 1}, \"20\": {\"S\": 1}, \"21\": {\"S\": 1}, \"22\": {\"S\": 1}, \"23\": {\"S\": 1}, \"24\": {\"S\": 1}, \"25\": {\"S\": 1}, \"26\": {\"S\": 1}, \"27\": {\"S\": 1}, \"28\": {\"S\": 1}, \"29\": {\"S\": 1}, \"30\": {\"S\": 1}, \"31\": {\"S\": 1}}" energy=-140.3463134765625 free_energy=-140.3463134765625 stress="-0.002888636663556099 -2.6062474844934513e-08 -1.8586598926617626e-08 -2.6062474844934513e-08 -0.004072319716215134 7.000331425643935e-09 -1.8586598926617626e-08 7.000331425643935e-09 -0.0025935617741197348" pbc="T T T"
Li       2.40166821       0.26892251       4.33377966        0      -0.01549024       0.00236080       0.00063045
Li       3.77009789       7.74967600       8.69903840        1       0.01548879      -0.00236147      -0.00063051
Li       5.48755102       7.74967601       2.18262940        2      -0.01549275      -0.00236153      -0.00063404
Li       0.68421482       0.26892246      10.85018870        3       0.01549150       0.00236290       0.00063197
Li       3.77009788       4.27822189       8.69903840        4       0.01548795       0.00235958      -0.00063426
Li       2.40166822       3.74037684       4.33377963        5      -0.01549001      -0.00236164       0.00063075
Li       0.68421489       3.74037677      10.85018866        6       0.01549167      -0.00236151       0.00063159
Li       5.48755102       4.27822186       2.18262942        7      -0.01549246       0.00236109      -0.00063118
Li       3.08588299      -0.00000009       0.00000009        8      -0.00000131       0.00000160      -0.00000188
Li      -0.00000005       0.00000007       6.51640917        9      -0.00000001      -0.00000011      -0.00000040
Li       3.08588297       4.00929937       0.00000007       10      -0.00000027      -0.00000285      -0.00000108
Li      -0.00000003       4.00929931       6.51640925       11      -0.00000091       0.00000150      -0.00000037
P        0.93932951       2.00464959       1.16793463       12      -0.00066520      -0.00000108       0.03303289
P        5.23243617       6.01394899      11.86488416       13       0.00066455       0.00000181      -0.03305547
P        4.02521219       6.01394889       5.34847521       14      -0.00064787      -0.00000068      -0.03304759
P        2.14655388       2.00464961       7.68434314       15       0.00064956       0.00000125       0.03305400
S        5.07612370       2.00464960       1.30682512       16       0.00279930      -0.00000066       0.01275007
S        1.09564214       6.01394904      11.72599291       17      -0.00280025       0.00000062      -0.01274487
S        1.99024114       6.01394894       5.20958390       18       0.00279446       0.00000013      -0.01274610
S        4.18152488       2.00464971       7.82323422       19      -0.00279043      -0.00000022       0.01274795
S        1.68772170       2.00464964      12.25093569       20       0.03397171      -0.00000030       0.02524872
S        4.48404419       6.01394893       0.78188246       21      -0.03397429       0.00000035      -0.02523242
S        4.77360467       6.01394896       7.29829159       22       0.03396959       0.00000144      -0.02524412
S        1.39816138       2.00464963       5.73452699       23      -0.03397303      -0.00000023       0.02523918
S        1.68016696       0.28147984       2.00960390       24       0.02273377      -0.00259306      -0.01691972
S        4.49159910       7.73711885      11.02321434       25      -0.02273227       0.00259187       0.01692422
S        4.76604985       7.73711917       4.50680505       26       0.02272977       0.00258551       0.01692612
S        1.40571585       0.28147964       8.52601305       27      -0.02272569      -0.00258550      -0.01692684
S        4.49159907       4.29077907      11.02321432       28      -0.02273269      -0.00259232       0.01692359
S        1.68016703       3.72781946       2.00960389       29       0.02273315       0.00259250      -0.01691991
S        1.40571585       3.72781965       8.52601309       30      -0.02272650       0.00258591      -0.01692719
S        4.76604987       4.29077864       4.50680508       31       0.02273034      -0.00258561       0.01692621
