4
Lattice="3.128588 0.0 0.0 -1.5642939988088433 2.709436998432005 0.0 0.0 0.0 5.016955" Properties=species:S:1:pos:R:3:spacegroup_kinds:I:1:forces:R:3 spacegroup="P 1" unit_cell=conventional occupancy="_JSON {\"0\": {\"Al\": 1}, \"1\": {\"Al\": 1}, \"2\": {\"N\": 1}, \"3\": {\"N\": 1}}" energy=-29.673717498779297 free_energy=-29.673717498779297 stress="-0.0022254022769629955 -1.3297728855832247e-06 3.864869313474628e-08 -1.3297728855832247e-06 -0.002227487973868847 -1.2562121121106884e-08 3.864869313474628e-08 -1.2562121121106884e-08 -0.005453694146126509" pbc="T T T"
Al       1.56429556       0.90314476       2.50490041        0      -0.00003521       0.00001966       0.00553120
Al      -0.00000156       1.80629224       5.01337791        1       0.00003294      -0.00002053       0.00552559
N        1.56429556       0.90314476       4.41849749        2      -0.00003460       0.00002089      -0.00553069
N       -0.00000156       1.80629224       1.91001999        3       0.00003683      -0.00002000      -0.00552573
