4
Lattice="3.128588 0.0 0.0 -1.5642939988088433 2.709436998432005 0.0 0.0 0.0 5.016955" Properties=species:S:1:pos:R:3:spacegroup_kinds:I:1:momenta:R:3:forces:R:3 spacegroup="P 1" unit_cell=conventional occupancy="_JSON {\"0\": {\"Al\": 1}, \"1\": {\"Al\": 1}, \"2\": {\"N\": 1}, \"3\": {\"N\": 1}}" energy=-29.623743057250977 free_energy=-29.623743057250977 stress="0.004300419706851244 -0.008672507479786873 0.0028819406870752573 -0.008672507479786873 -0.006943814922124147 -0.004434583708643913 0.0028819406870752573 -0.004434583708643913 -0.014839190058410168" pbc="T T T"
Al       1.54321201       0.89379622       2.53645983        0      -0.00705463      -0.41529186       0.79444961      -0.25250006       0.39302880      -0.87834525
Al       0.03580903       1.79893951       4.98957807        1       0.09337930      -0.29525077      -0.61191979      -0.16601214       0.14058234       0.62745249
N        1.59619752       0.90645096       4.40111845        2      -0.02189833       1.09350623       0.27120870      -0.08899669      -0.09593824       0.34910983
N       -0.05911255       1.83464208       1.91219262        3      -0.06442638      -0.38296369      -0.45373849       0.50750881      -0.43767279      -0.09821716
