4
Lattice="3.128588 0.0 0.0 -1.5642939988088433 2.709436998432005 0.0 0.0 0.0 5.016955" Properties=species:S:1:pos:R:3:spacegroup_kinds:I:1:momenta:R:3:forces:R:3 spacegroup="P 1" unit_cell=conventional occupancy="_JSON {\"0\": {\"Al\": 1}, \"1\": {\"Al\": 1}, \"2\": {\"N\": 1}, \"3\": {\"N\": 1}}" energy=-29.673715591430664 free_energy=-29.673715591430664 stress="-0.0022251312620937824 -1.4606133618144668e-06 2.1440941466721597e-08 -1.4606133618144668e-06 -0.0022273557260632515 -3.880332855032975e-08 2.1440941466721597e-08 -3.880332855032975e-08 -0.005453639663755894" pbc="T T T"
Al       1.56429556       0.90314476       2.50490041        0       0.68448204       0.53670047       0.91071479      -0.00003497       0.00002072       0.00553141
Al      -0.00000156       1.80629224       5.01337791        1       0.31075784       0.39520501      -1.87833745       0.00003550      -0.00001951       0.00552391
N        1.56429556       0.90314476       4.41849749        2      -0.23293981      -0.79739853      -0.40745139      -0.00003729       0.00002028      -0.00553113
N       -0.00000156       1.80629224       1.91001999        3      -0.76230006      -0.13450696       1.37507406       0.00003661      -0.00002148      -0.00552420
4
Lattice="3.128588 0.0 0.0 -1.5642939988088433 2.709436998432005 0.0 0.0 0.0 5.016955" Properties=species:S:1:pos:R:3:spacegroup_kinds:I:1:momenta:R:3:forces:R:3 spacegroup="P 1" unit_cell=conventional occupancy="_JSON {\"0\": {\"Al\": 1}, \"1\": {\"Al\": 1}, \"2\": {\"N\": 1}, \"3\": {\"N\": 1}}" energy=-29.43359375 free_energy=-29.43359375 stress="-0.013773714192211628 -0.016446437686681747 0.012948818504810333 -0.016446437686681747 -0.02396891824901104 0.009969746693968773 0.012948818504810333 0.009969746693968773 -0.01205948181450367" pbc="T T T"
Al       1.60246141       0.92231284       2.54150849        0       0.57498192      -0.13491981       1.02882496      -1.31301391      -0.49033383      -0.87831289
Al       0.00328789       1.81111139       4.94718774        1      -0.44725808       0.00118053      -1.07867321      -0.30154222      -0.59423220       1.18011785
N        1.53678588       0.85870780       4.38099595        2       0.14052040      -0.46066732       0.20203879       0.28490829       0.67984426       1.25553691
N       -0.05228245       1.80432670       2.00436658        3      -0.26824430       0.59440660      -0.15219058       1.32964802       0.40472156      -1.55734205
4
Lattice="3.128588 0.0 0.0 -1.5642939988088433 2.709436998432005 0.0 0.0 0.0 5.016955" Properties=species:S:1:pos:R:3:spacegroup_kinds:I:1:momenta:R:3:forces:R:3 spacegroup="P 1" unit_cell=conventional occupancy="_JSON {\"0\": {\"Al\": 1}, \"1\": {\"Al\": 1}, \"2\": {\"N\": 1}, \"3\": {\"N\": 1}}" energy=-29.5672550201416 free_energy=-29.5672550201416 stress="0.012915774248540401 0.0017025101697072387 0.003579398849979043 0.0017025101697072387 -0.025857187807559967 -0.005369148682802916 0.003579398849979043 -0.005369148682802916 -0.011435276828706264" pbc="T T T"
Al       1.59598185       0.90138486       2.55101264        0      -0.85003972      -0.64755170      -0.41676330      -0.33522701       0.74370360      -1.26921284
Al      -0.01311799       1.79082858       4.96769658        1      -0.24557023      -0.74327768       1.65595784      -0.18280309      -0.17026743       1.21499693
N        1.52960408       0.86779350       4.41996342        2       0.16413074       0.60763554       0.63654586       0.31887707       0.39321333      -0.09056892
N       -0.00060095       1.87475189       1.90756519        3       0.93147914       0.78319384      -1.87574045       0.19915313      -0.96664965       0.14478487
4
Lattice="3.128588 0.0 0.0 -1.5642939988088433 2.709436998432005 0.0 0.0 0.0 5.016955" Properties=species:S:1:pos:R:3:spacegroup_kinds:I:1:momenta:R:3:forces:R:3 spacegroup="P 1" unit_cell=conventional occupancy="_JSON {\"0\": {\"Al\": 1}, \"1\": {\"Al\": 1}, \"2\": {\"N\": 1}, \"3\": {\"N\": 1}}" energy=-29.406274795532227 free_energy=-29.406274795532227 stress="0.010688809677958488 0.01649816520512104 -0.008163991384208202 0.01649816520512104 -0.0094232689589262 -0.015553969889879227 -0.008163991384208202 -0.015553969889879227 -0.06125418469309807" pbc="T T T"
Al       1.53423928       0.87298461       2.51007451        0      -1.60925397       0.09619207      -1.03262298       0.74608797       1.00298572       0.03482430
Al      -0.01349003       1.78470222       5.05709164        1       0.21561266      -0.04339811       1.72443259       0.02271266       0.40733075      -1.66436934
N        1.55208975       0.92225131       4.42203510        2       0.38659375       0.63935826      -0.93002924       0.04495803      -0.39009839      -0.56986117
N        0.09667396       1.88681818       1.81230438        3       1.00704752      -0.69215220       0.23821959      -0.81375861      -1.02021801       2.19940615
4
Lattice="3.128588 0.0 0.0 -1.5642939988088433 2.709436998432005 0.0 0.0 0.0 5.016955" Properties=species:S:1:pos:R:3:spacegroup_kinds:I:1:momenta:R:3:forces:R:3 spacegroup="P 1" unit_cell=conventional occupancy="_JSON {\"0\": {\"Al\": 1}, \"1\": {\"Al\": 1}, \"2\": {\"N\": 1}, \"3\": {\"N\": 1}}" energy=-29.201900482177734 free_energy=-29.201900482177734 stress="-0.026440944522619247 0.03815542906522751 -0.0313827283680439 0.03815542906522751 -0.004877379164099693 0.0015438440022990108 -0.0313827283680439 0.0015438440022990108 -0.05181994289159775" pbc="T T T"
Al       1.49382402       0.87740192       2.48150489        0      -0.08661622      -0.02748814       0.25595575       2.48428297      -0.46186748       1.22611880
Al      -0.02076735       1.79337851       5.08843295        1       0.00716750       0.60209042      -1.27068275       0.64723277       0.57433367      -2.36004114
N        1.60157221       0.96971685       4.33361319        2       0.49437268       0.53651061      -0.17473406      -0.53882593      -0.70145273       1.74609113
N        0.13924903       1.81421453       1.89535166        3      -0.41492395      -1.11111292       1.18946099      -2.59268928       0.58898640      -0.61216843
4
Lattice="3.128588 0.0 0.0 -1.5642939988088433 2.709436998432005 0.0 0.0 0.0 5.016955" Properties=species:S:1:pos:R:3:spacegroup_kinds:I:1:momenta:R:3:forces:R:3 spacegroup="P 1" unit_cell=conventional occupancy="_JSON {\"0\": {\"Al\": 1}, \"1\": {\"Al\": 1}, \"2\": {\"N\": 1}, \"3\": {\"N\": 1}}" energy=-29.57462501525879 free_energy=-29.57462501525879 stress="-0.02361779846251011 -0.014321333728730679 -0.011128013022243977 -0.014321333728730679 0.01503016147762537 -0.0028545940294861794 -0.011128013022243977 -0.0028545940294861794 -0.014440372586250305" pbc="T T T"
Al       1.53421961       0.88369270       2.53780581        0       1.55944023       0.36820901       1.55971002       0.29264328      -0.24000619      -0.91367781
Al      -0.00048005       1.82107762       4.98837342        1       1.01688513       0.86374286      -2.47525452       0.94369733       0.52251649       0.78486574
N        1.63583967       0.96584653       4.40663184        2      -0.31021845      -0.52489284       1.27117413      -1.15103996      -0.78907275       0.05687741
N       -0.01177525       1.75252280       1.90648729        3      -2.26610689      -0.70705905      -0.35562976      -0.08530081       0.50656223       0.07193455
4
Lattice="3.128588 0.0 0.0 -1.5642939988088433 2.709436998432005 0.0 0.0 0.0 5.016955" Properties=species:S:1:pos:R:3:spacegroup_kinds:I:1:momenta:R:3:forces:R:3 spacegroup="P 1" unit_cell=conventional occupancy="_JSON {\"0\": {\"Al\": 1}, \"1\": {\"Al\": 1}, \"2\": {\"N\": 1}, \"3\": {\"N\": 1}}" energy=-29.372072219848633 free_energy=-29.372072219848633 stress="-0.005629527848213911 -0.018719568848609924 0.015849411487579346 -0.018719568848609924 -0.032272666692733765 0.017212186008691788 0.015849411487579346 0.017212186008691788 -0.007298446726053953" pbc="T T T"
Al       1.57072833       0.88046442       2.56331975        0      -0.00039245      -0.37629496      -0.57844112      -1.34386277      -0.44065559      -1.50707960
Al       0.05055070       1.86456080       4.94968571        1       0.52726972       0.77034217       1.04960241      -0.49128708      -1.36434078       1.82584715
N        1.58204804       0.88176662       4.44992391        2      -0.27832218      -1.02263451      -0.55459316       0.15003373       1.16376364      -0.85894865
N       -0.12661087       1.75915453       1.88869863        3      -0.24855506       0.62858731       0.08343181       1.68511605       0.64123279       0.54018092
4
Lattice="3.128588 0.0 0.0 -1.5642939988088433 2.709436998432005 0.0 0.0 0.0 5.016955" Properties=species:S:1:pos:R:3:spacegroup_kinds:I:1:momenta:R:3:forces:R:3 spacegroup="P 1" unit_cell=conventional occupancy="_JSON {\"0\": {\"Al\": 1}, \"1\": {\"Al\": 1}, \"2\": {\"N\": 1}, \"3\": {\"N\": 1}}" energy=-29.596923828125 free_energy=-29.596923828125 stress="0.015976551920175552 -0.004506176803261042 0.006018606945872307 -0.004506176803261042 -0.02549932338297367 -0.00459705526009202 0.006018606945872307 -0.00459705526009202 -0.010014044120907784" pbc="T T T"
Al       1.53284806       0.86390066       2.51395075        0      -1.59464511      -0.16469680      -1.74991337      -0.27820620       0.89915770      -0.15420641
Al       0.06317840       1.83227867       5.00948381        1       0.38440026      -1.80666592       1.59449934      -0.58708382      -0.41271931       0.16725256
N        1.58572481       0.89623783       4.41422573        2       0.14193108       1.12964920      -0.09119186       0.25704041       0.38076994       0.00227998
N       -0.08152105       1.83862419       1.90381444        3       1.06831382       0.84171352       0.24660586       0.60824966      -0.86720812      -0.01532613
4
Lattice="3.128588 0.0 0.0 -1.5642939988088433 2.709436998432005 0.0 0.0 0.0 5.016955" Properties=species:S:1:pos:R:3:spacegroup_kinds:I:1:momenta:R:3:forces:R:3 spacegroup="P 1" unit_cell=conventional occupancy="_JSON {\"0\": {\"Al\": 1}, \"1\": {\"Al\": 1}, \"2\": {\"N\": 1}, \"3\": {\"N\": 1}}" energy=-29.46255111694336 free_energy=-29.46255111694336 stress="-0.005697074346244335 0.010849532671272755 -0.003906618803739548 0.010849532671272755 -0.0191339123994112 -0.01270321011543274 -0.003906618803739548 -0.01270321011543274 -0.011871347203850746" pbc="T T T"
Al       1.48347330       0.88264393       2.44527929        0      -0.30454496       1.01149495      -0.60004465       0.88393146       0.95768529       1.70776987
Al       0.06164410       1.77681260       5.07306070        1      -0.86715222      -0.75617428       0.43048826      -0.30080599       0.71655363      -1.72279894
N        1.61717708       0.94947183       4.40498424        2       0.38645801       0.04830127       0.18623329      -0.07233988      -0.67486024       0.48910731
N       -0.01486929       1.85626151       1.92266701        3       0.78523920      -0.30362193      -0.01667695      -0.51078570      -0.99937874      -0.47407800
4
Lattice="3.128588 0.0 0.0 -1.5642939988088433 2.709436998432005 0.0 0.0 0.0 5.016955" Properties=species:S:1:pos:R:3:spacegroup_kinds:I:1:momenta:R:3:forces:R:3 spacegroup="P 1" unit_cell=conventional occupancy="_JSON {\"0\": {\"Al\": 1}, \"1\": {\"Al\": 1}, \"2\": {\"N\": 1}, \"3\": {\"N\": 1}}" energy=-29.518749237060547 free_energy=-29.518749237060547 stress="-0.02337072603404522 0.006539784371852875 -0.01609787717461586 0.006539784371852875 0.006697406060993671 -0.0004823260533157736 -0.01609787717461586 -0.0004823260533157736 -0.02216057851910591" pbc="T T T"
Al       1.50607639       0.94974319       2.46463697        0       1.15921376       0.62635273       1.50689916       1.24247432      -0.60704702       1.15697289
Al       0.01335471       1.75088040       5.06242870        1      -0.91112041       0.14825231      -0.88962637       0.51474798       0.69610691      -1.43088329
N        1.62637952       0.90489621       4.42127858        2      -0.14223515      -0.64065030       0.21498409      -0.71771884      -0.51824272      -0.07984806
N        0.02538012       1.82158365       1.88963024        3      -0.10585817      -0.13395474      -0.83225697      -1.03950357       0.42918268       0.35375857
4
Lattice="3.128588 0.0 0.0 -1.5642939988088433 2.709436998432005 0.0 0.0 0.0 5.016955" Properties=species:S:1:pos:R:3:spacegroup_kinds:I:1:momenta:R:3:forces:R:3 spacegroup="P 1" unit_cell=conventional occupancy="_JSON {\"0\": {\"Al\": 1}, \"1\": {\"Al\": 1}, \"2\": {\"N\": 1}, \"3\": {\"N\": 1}}" energy=-29.605012893676758 free_energy=-29.605012893676758 stress="0.001596278976649046 -0.006785905919969082 -0.003095093183219433 -0.006785905919969082 0.0017807577969506383 0.0017245657509192824 -0.003095093183219433 0.0017245657509192824 -0.0231153704226017" pbc="T T T"
Al       1.56693928       0.93861032       2.54470908        0       1.44875331      -0.98943809       1.48437337      -0.01659418      -0.29131559      -1.20301008
Al      -0.01304570       1.78057345       4.99752449        1       0.01689758       1.11024993      -1.70729974       0.38438380       0.02358325       0.50761902
N        1.58384201       0.87104971       4.42155575        2      -0.67927418      -0.02704967      -0.19037178      -0.39236635       0.15177935      -0.39793122
N        0.00122210       1.81989276       1.85992053        3      -0.78637669      -0.09376215       0.41329806       0.02457666       0.11595279       1.09332228
4
Lattice="3.128588 0.0 0.0 -1.5642939988088433 2.709436998432005 0.0 0.0 0.0 5.016955" Properties=species:S:1:pos:R:3:spacegroup_kinds:I:1:momenta:R:3:forces:R:3 spacegroup="P 1" unit_cell=conventional occupancy="_JSON {\"0\": {\"Al\": 1}, \"1\": {\"Al\": 1}, \"2\": {\"N\": 1}, \"3\": {\"N\": 1}}" energy=-29.47020721435547 free_energy=-29.47020721435547 stress="0.0032030611764639616 -0.017801400274038315 0.011838394217193127 -0.017801400274038315 -0.04134911298751831 0.007359905168414116 0.011838394217193127 0.007359905168414116 -0.005160362925380468" pbc="T T T"
Al       1.62755629       0.89950079       2.54516750        0       1.04970666      -0.99981922      -0.80202902      -1.41065204       0.15933132      -0.91778862
Al      -0.00757060       1.81703573       4.95606284        1      -0.03757969       0.11959863      -0.16512744      -0.26242799      -0.84351504       1.41445816
N        1.52756234       0.85151202       4.42065483        2      -0.42752188       0.29023044      -0.07965777       0.31765977       0.98894596      -0.00115511
N       -0.06966663       1.84442110       1.93994535        3      -0.58460505       0.58999016       1.04681424       1.35542035      -0.30476218      -0.49551427
4
Lattice="3.128588 0.0 0.0 -1.5642939988088433 2.709436998432005 0.0 0.0 0.0 5.016955" Properties=species:S:1:pos:R:3:spacegroup_kinds:I:1:momenta:R:3:forces:R:3 spacegroup="P 1" unit_cell=conventional occupancy="_JSON {\"0\": {\"Al\": 1}, \"1\": {\"Al\": 1}, \"2\": {\"N\": 1}, \"3\": {\"N\": 1}}" energy=-29.452987670898438 free_energy=-29.452987670898438 stress="-0.013224881142377853 -0.023749982938170433 0.007911503314971924 -0.023749982938170433 -0.04793176427483559 -0.007333377376198769 0.007911503314971924 -0.007333377376198769 0.028632964938879013" pbc="T T T"
Al       1.63184036       0.85684028       2.46693550        0      -0.97589079      -0.55899528      -1.34838285      -1.39009821       1.11026430       1.17304051
Al      -0.02377746       1.82170281       4.98999598        1      -0.28018815       0.45883488       1.28013502      -0.08532454       0.08283445       0.34696883
N        1.52792700       0.92957750       4.44479001        2       0.11446469       0.97873261       0.08012567       0.22036067      -0.17398703       0.05598849
N       -0.04718860       1.83921503       2.00086008        3       1.14161427      -0.87857219      -0.01187776       1.25506210      -1.01911139      -1.57599783
4
Lattice="3.128588 0.0 0.0 -1.5642939988088433 2.709436998432005 0.0 0.0 0.0 5.016955" Properties=species:S:1:pos:R:3:spacegroup_kinds:I:1:momenta:R:3:forces:R:3 spacegroup="P 1" unit_cell=conventional occupancy="_JSON {\"0\": {\"Al\": 1}, \"1\": {\"Al\": 1}, \"2\": {\"N\": 1}, \"3\": {\"N\": 1}}" energy=-29.536317825317383 free_energy=-29.536317825317383 stress="-0.019857581704854965 0.013829050585627556 -0.005717383697628975 0.013829050585627556 -0.0031639488879591227 -0.0016709871124476194 -0.005717383697628975 -0.0016709871124476194 -0.0062605333514511585" pbc="T T T"
Al       1.56291508       0.86348348       2.43836899        0      -1.44558698       0.38889145       0.34074988       0.67286074       0.11609247       1.45909607
Al      -0.01834143       1.83613135       5.05736567        1       0.19731516      -0.00921559       1.04742071       0.06595127       0.15003675      -1.19267416
N        1.54726696       0.95741149       4.47045639        2      -0.01024012       0.05685039       0.14844050       0.09761514      -0.44420993      -0.65174747
N        0.05576969       1.77068662       1.90062724        3       1.25851197      -0.43652623      -1.53661104      -0.83642715       0.17808062       0.38532537
4
Lattice="3.128588 0.0 0.0 -1.5642939988088433 2.709436998432005 0.0 0.0 0.0 5.016955" Properties=species:S:1:pos:R:3:spacegroup_kinds:I:1:momenta:R:3:forces:R:3 spacegroup="P 1" unit_cell=conventional occupancy="_JSON {\"0\": {\"Al\": 1}, \"1\": {\"Al\": 1}, \"2\": {\"N\": 1}, \"3\": {\"N\": 1}}" energy=-29.5310001373291 free_energy=-29.5310001373291 stress="-0.018293917179107666 0.01570754498243332 -0.011607765220105648 0.01570754498243332 0.0031481801997870207 0.0046057021245360374 -0.011607765220105648 0.0046057021245360374 -0.017258966341614723" pbc="T T T"
Al       1.54701080       0.87273547       2.46070916        0       0.71855774      -0.11584358       0.49435274       1.07476723      -0.28505832       1.06925392
Al      -0.01761628       1.84389393       5.05391116        1       0.19346404       0.17720453      -0.69190147       0.23187682      -0.07941943      -1.16825140
N        1.56395351       0.94331122       4.45961398        2       0.32487457      -0.12409460      -0.51346190      -0.11547172      -0.20503265      -0.72920215
N        0.06831344       1.75176763       1.87546338        3      -1.23689635       0.06273367       0.71101067      -1.19117224       0.56951016       0.82819951
4
Lattice="3.128588 0.0 0.0 -1.5642939988088433 2.709436998432005 0.0 0.0 0.0 5.016955" Properties=species:S:1:pos:R:3:spacegroup_kinds:I:1:momenta:R:3:forces:R:3 spacegroup="P 1" unit_cell=conventional occupancy="_JSON {\"0\": {\"Al\": 1}, \"1\": {\"Al\": 1}, \"2\": {\"N\": 1}, \"3\": {\"N\": 1}}" energy=-29.61321258544922 free_energy=-29.61321258544922 stress="-0.008381822146475315 -0.004276740364730358 0.005492961034178734 -0.004276740364730358 -0.013937034644186497 0.0014804278034716845 0.005492961034178734 0.0014804278034716845 0.012475437484681606" pbc="T T T"
Al       1.57767913       0.87033378       2.48321560        0       0.42145758      -0.10086052       0.75449340      -0.50599504       0.14215353       0.64868540
Al       0.00878680       1.84488741       5.00616576        1       0.94842530       0.04829702      -0.67234641      -0.28190917      -0.37569690       0.05942371
N        1.54733737       0.91884309       4.41695261        2      -0.50233589      -0.06173878      -0.86681611       0.26756701       0.16352381       0.34766737
N       -0.02491947       1.77881442       1.96659672        3      -0.86754696       0.11430226       0.78466923       0.52033705       0.07001957      -1.05577695
4
Lattice="3.128588 0.0 0.0 -1.5642939988088433 2.709436998432005 0.0 0.0 0.0 5.016955" Properties=species:S:1:pos:R:3:spacegroup_kinds:I:1:momenta:R:3:forces:R:3 spacegroup="P 1" unit_cell=conventional occupancy="_JSON {\"0\": {\"Al\": 1}, \"1\": {\"Al\": 1}, \"2\": {\"N\": 1}, \"3\": {\"N\": 1}}" energy=-29.55784034729004 free_energy=-29.55784034729004 stress="-0.01636408641934395 -0.002947687404230237 0.012903742492198944 -0.002947687404230237 -0.006207853090018034 0.0015376254450529814 0.012903742492198944 0.0015376254450529814 -0.002714552218094468" pbc="T T T"
Al       1.59068812       0.88023428       2.52274583        0      -0.41625686       0.17887051       0.33160873      -0.90884483      -0.14030939      -0.36867684
Al       0.01872292       1.83477379       4.97781992        1       0.14973992      -0.20763046      -0.17578499      -0.72829860      -0.10046367       0.72652406
N        1.52039168       0.92489991       4.39464377        2       0.19754369       0.25939892       0.47781758       0.72476012      -0.09604960       0.71574080
N       -0.04216858       1.77342028       1.96745700        3       0.06897326      -0.23063899      -0.63364120       0.91238332       0.33682260      -1.07358789
4
Lattice="3.128588 0.0 0.0 -1.5642939988088433 2.709436998432005 0.0 0.0 0.0 5.016955" Properties=species:S:1:pos:R:3:spacegroup_kinds:I:1:momenta:R:3:forces:R:3 spacegroup="P 1" unit_cell=conventional occupancy="_JSON {\"0\": {\"Al\": 1}, \"1\": {\"Al\": 1}, \"2\": {\"N\": 1}, \"3\": {\"N\": 1}}" energy=-29.621112823486328 free_energy=-29.621112823486328 stress="-0.02150105871260166 0.005276395473629236 -0.0032674383837729692 0.005276395473629236 0.010657509788870811 0.001924918033182621 -0.0032674383837729692 0.001924918033182621 -0.0015899046557024121" pbc="T T T"
Al       1.54767648       0.89587762       2.50832860        0      -0.85809904       0.46896530      -1.00002930       0.39160502      -0.39029145      -0.15032673
Al       0.00665802       1.82067516       5.00342495        1      -0.72966975      -0.11082675       1.46536711      -0.00949953       0.22696996       0.34863207
N        1.57185930       0.94293295       4.45440721        2       0.62349901      -0.37686496       0.64593133      -0.01969789      -0.43335307      -0.83890229
N        0.01256037       1.75229421       1.88600533        3       0.96426976       0.01872641      -1.11126908      -0.36240757       0.59667438       0.64059728
4
Lattice="3.128588 0.0 0.0 -1.5642939988088433 2.709436998432005 0.0 0.0 0.0 5.016955" Properties=species:S:1:pos:R:3:spacegroup_kinds:I:1:momenta:R:3:forces:R:3 spacegroup="P 1" unit_cell=conventional occupancy="_JSON {\"0\": {\"Al\": 1}, \"1\": {\"Al\": 1}, \"2\": {\"N\": 1}, \"3\": {\"N\": 1}}" energy=-29.520856857299805 free_energy=-29.520856857299805 stress="-0.014047326520085335 0.011821123771369457 -0.014255652204155922 0.011821123771369457 -0.005614369176328182 0.009361490607261658 -0.014255652204155922 0.009361490607261658 -0.019571051001548767" pbc="T T T"
Al       1.52999431       0.91403917       2.46474574        0       0.09545144      -0.23101204      -1.18071385       1.21874869      -0.63577425       0.99289715
Al      -0.00890655       1.82180732       5.05208966        1       0.31216914      -0.10747510       0.45537742       0.39472783      -0.38378417      -1.12710035
N        1.59437714       0.88605553       4.45928982        2      -0.04799011      -0.53350281      -0.20523283      -0.40810397       0.35579059      -0.79021764
N        0.05384444       1.77207217       1.87144997        3      -0.35963048       0.87198991       0.93056928      -1.20537257       0.66376793       0.92442042
4
Lattice="3.128588 0.0 0.0 -1.5642939988088433 2.709436998432005 0.0 0.0 0.0 5.016955" Properties=species:S:1:pos:R:3:spacegroup_kinds:I:1:momenta:R:3:forces:R:3 spacegroup="P 1" unit_cell=conventional occupancy="_JSON {\"0\": {\"Al\": 1}, \"1\": {\"Al\": 1}, \"2\": {\"N\": 1}, \"3\": {\"N\": 1}}" energy=-29.61878776550293 free_energy=-29.61878776550293 stress="0.010117636062204838 -0.0018219787161797285 -0.0018730609444901347 -0.0018219787161797285 -0.024783067405223846 0.004591059405356646 -0.0018730609444901347 0.004591059405356646 2.6413848900119774e-05" pbc="T T T"
Al       1.53818034       0.90928019       2.47247633        0       0.23228460      -0.27447310       1.41733279       0.21200946       0.18702215       0.85530752
Al       0.01802692       1.81430741       5.03506517        1       0.60360886      -0.42930282      -1.11140775       0.03760152      -0.69444090      -0.55142456
N        1.59518013       0.85128050       4.42414642        2       0.09084550       0.02420713      -0.77345506      -0.19470209       0.84070534       0.01228079
N       -0.01452984       1.83034433       1.92467356        3      -0.92673898       0.67956873       0.46753008      -0.05490886      -0.33328652      -0.31616384
4
Lattice="3.128588 0.0 0.0 -1.5642939988088433 2.709436998432005 0.0 0.0 0.0 5.016955" Properties=species:S:1:pos:R:3:spacegroup_kinds:I:1:momenta:R:3:forces:R:3 spacegroup="P 1" unit_cell=conventional occupancy="_JSON {\"0\": {\"Al\": 1}, \"1\": {\"Al\": 1}, \"2\": {\"N\": 1}, \"3\": {\"N\": 1}}" energy=-29.623743057250977 free_energy=-29.623743057250977 stress="0.004300419706851244 -0.008672507479786873 0.0028819406870752573 -0.008672507479786873 -0.006943814922124147 -0.004434583708643913 0.0028819406870752573 -0.004434583708643913 -0.014839190058410168" pbc="T T T"
Al       1.54321201       0.89379622       2.53645983        0      -0.00705463      -0.41529186       0.79444961      -0.25250006       0.39302880      -0.87834525
Al       0.03580903       1.79893951       4.98957807        1       0.09337930      -0.29525077      -0.61191979      -0.16601214       0.14058234       0.62745249
N        1.59619752       0.90645096       4.40111845        2      -0.02189833       1.09350623       0.27120870      -0.08899669      -0.09593824       0.34910983
N       -0.05911255       1.83464208       1.91219262        3      -0.06442638      -0.38296369      -0.45373849       0.50750881      -0.43767279      -0.09821716
