4
Lattice="3.128588 0.0 0.0 -1.5642939988088433 2.709436998432005 0.0 0.0 0.0 5.016955" Properties=species:S:1:pos:R:3:spacegroup_kinds:I:1:forces:R:3 spacegroup="P 1" unit_cell=conventional occupancy="_JSON {\"0\": {\"Al\": 1}, \"1\": {\"Al\": 1}, \"2\": {\"N\": 1}, \"3\": {\"N\": 1}}" energy=-29.673715591430664 free_energy=-29.673715591430664 stress="-0.0022251312620937824 -1.4606133618144668e-06 2.1440941466721597e-08 -1.4606133618144668e-06 -0.0022273557260632515 -3.880332855032975e-08 2.1440941466721597e-08 -3.880332855032975e-08 -0.005453639663755894" pbc="T T T"
Al       1.56429556       0.90314476       2.50490041        0      -0.00003497       0.00002072       0.00553141
Al      -0.00000156       1.80629224       5.01337791        1       0.00003550      -0.00001951       0.00552391
N        1.56429556       0.90314476       4.41849749        2      -0.00003729       0.00002028      -0.00553113
N       -0.00000156       1.80629224       1.91001999        3       0.00003661      -0.00002148      -0.00552420
