4
Lattice="3.128588 0.0 0.0 -1.5642939988088433 2.709436998432005 0.0 0.0 0.0 5.016955" Properties=species:S:1:pos:R:3:spacegroup_kinds:I:1:forces:R:3 spacegroup="P 1" unit_cell=conventional occupancy="_JSON {\"0\": {\"Al\": 1}, \"1\": {\"Al\": 1}, \"2\": {\"N\": 1}, \"3\": {\"N\": 1}}" energy=-29.673717498779297 free_energy=-29.673717498779297 stress="-0.002225381089374423 -1.3977197568237898e-06 -3.714607288429761e-09 -1.3977197568237898e-06 -0.002227337332442403 -3.22659552409732e-08 -3.714607288429761e-09 -3.22659552409732e-08 -0.005453645251691341" pbc="T T T"
Al       1.56429556       0.90314476       2.50490041        0      -0.00003529       0.00002009       0.00553104
Al      -0.00000156       1.80629224       5.01337791        1       0.00003351      -0.00001959       0.00552488
N        1.56429556       0.90314476       4.41849749        2      -0.00003543       0.00002017      -0.00553077
N       -0.00000156       1.80629224       1.91001999        3       0.00003716      -0.00002070      -0.00552502
