13
Lattice="7.26870274 0.0 0.0 3.634351370000001 6.294881225397555 0.0 3.634351370000001 2.0982937417991856 5.934870934989993" Properties=species:S:1:pos:R:3:spacegroup_kinds:I:1:momenta:R:3:forces:R:3 spacegroup="P 1" unit_cell=conventional occupancy="_JSON {\"0\": {\"Li\": 1}, \"1\": {\"Li\": 1}, \"2\": {\"Li\": 1}, \"3\": {\"Li\": 1}, \"4\": {\"Li\": 1}, \"5\": {\"Li\": 1}, \"6\": {\"P\": 1}, \"7\": {\"S\": 1}, \"8\": {\"S\": 1}, \"9\": {\"S\": 1}, \"10\": {\"S\": 1}, \"11\": {\"S\": 1}, \"12\": {\"Cl\": 1}}" energy=-53.3140754699707 free_energy=-53.3140754699707 stress="-0.003187227062880993 0.002572553465142846 0.0002821442030835897 0.002572553465142846 -0.0014439871301874518 -0.00039873571950010955 0.0002821442030835897 -0.00039873571950010955 0.003421971807256341" pbc="T T T"
Li       9.29877251       7.26019237       3.11228097        0       0.04981097      -0.02834616       0.05779268      -0.18408506      -0.01808601      -0.08921807
Li      12.56880728       5.37463810       5.81781530        1      -0.41305958       0.06280474       0.16413278      -0.14464854       0.04304185      -0.08147442
Li       9.25904570       5.31271561       5.76785080        2       0.16282179       0.06897369      -0.08405632      -0.01697761      -0.05189389       0.03946476
Li      12.59162598       7.20331404       3.04311374        3      -0.25522094       0.06009563      -0.08541719      -0.28789669       0.14490080       0.08329992
Li      10.97640284       4.44422080       2.97095753        4      -0.02270153       0.33454093      -0.30727275      -0.17355731       0.06783777      -0.00154814
Li      11.04786706       8.17345452       5.78801844        5       0.38265411      -0.23701349      -0.27946986       0.05956631      -0.03732194       0.01641399
P        7.25303606       4.20258342       3.00224570        6      -0.10295061       0.02696067       0.13258733       0.18391916       0.04485081      -0.03258574
S        7.25978690       6.13388875       2.27234685        7       0.15421517      -0.44278331      -0.15433541       0.16114426      -0.08797370       0.17645237
S        8.92407965       3.25986058       2.27346123        8       0.09341030       0.85822393      -0.00235366       0.20819707      -0.10851586       0.25113446
S        5.62366805       3.20710378       2.26010840        9       0.15481374       0.03156657      -0.41181507      -0.17984208       0.00265795       0.03830513
S        7.22510156       4.16880746       5.07953060       10      -0.36048961      -0.22333727      -0.10560712       0.09503345       0.09449215      -0.42746621
S       10.87911462       6.27781604       4.43919504       11      -0.31501294      -0.29058844       0.30114247       0.39652413      -0.01423611      -0.08173563
Cl       0.00990254       0.02537481       0.00683610       12       0.47170915      -0.22109752       0.77467211      -0.11737713      -0.07975382       0.10895746
