13
Lattice="7.26870274 0.0 0.0 3.634351370000001 6.294881225397555 0.0 3.634351370000001 2.0982937417991856 5.934870934989993" Properties=species:S:1:pos:R:3:spacegroup_kinds:I:1:momenta:R:3:forces:R:3 spacegroup="P 1" unit_cell=conventional occupancy="_JSON {\"0\": {\"Li\": 1}, \"1\": {\"Li\": 1}, \"2\": {\"Li\": 1}, \"3\": {\"Li\": 1}, \"4\": {\"Li\": 1}, \"5\": {\"Li\": 1}, \"6\": {\"P\": 1}, \"7\": {\"S\": 1}, \"8\": {\"S\": 1}, \"9\": {\"S\": 1}, \"10\": {\"S\": 1}, \"11\": {\"S\": 1}, \"12\": {\"Cl\": 1}}" energy=-53.3634147644043 free_energy=-53.3634147644043 stress="-0.0007942017982713878 -2.4013036181713687e-07 -1.6287916082546872e-07 -2.4013036181713687e-07 -0.0007939283968880773 -1.1095210084022256e-07 -1.6287916082546872e-07 -1.1095210084022256e-07 -0.0007938980706967413" pbc="T T T"
Li       9.25387995       7.24703237       3.10460814        0       0.00000000       0.00000000       0.00000000       0.00422557      -0.00243448       0.00344814
Li      12.55222827       5.34273008       5.79769826        1       0.00000000       0.00000000       0.00000000      -0.00421087       0.00243274      -0.00344102
Li       9.25387995       5.34273008       5.79769826        2       0.00000000       0.00000000       0.00000000       0.00422509       0.00243891      -0.00344712
Li      12.55222827       7.24703237       3.10460814        3       0.00000000       0.00000000       0.00000000      -0.00421243      -0.00243116       0.00344121
Li      10.90305411       4.39057894       3.10460814        4       0.00000000       0.00000000       0.00000000       0.00000239       0.00487553       0.00344764
Li      10.90305411       8.19918351       5.79769826        5       0.00000000       0.00000000       0.00000000       0.00000182      -0.00486348      -0.00344141
P        7.26870274       4.19658748       2.96743547        6       0.00000000       0.00000000       0.00000000       0.00008488       0.00004612       0.00003596
S        7.26870637       6.13578650       2.28182731        7       0.00000000       0.00000000       0.00000000      -0.00001824      -0.01090899       0.00384720
S        8.94810016       3.22699113       2.28182731        8       0.00000000       0.00000000       0.00000000      -0.00945763       0.00544027       0.00384724
S        5.58931258       3.22699113       2.28182731        9       0.00000000       0.00000000       0.00000000       0.00937820       0.00541313       0.00383040
S        7.26870637       4.19658958       5.02426588       10       0.00000000       0.00000000       0.00000000      -0.00001891      -0.00000942      -0.01156901
S       10.90305411       6.29488123       4.45115320       11       0.00000000       0.00000000       0.00000000      -0.00000134      -0.00000060      -0.00000021
Cl       0.00000000       0.00000000       0.00000000       12       0.00000000       0.00000000       0.00000000       0.00000144       0.00000146       0.00000101
13
Lattice="7.26870274 0.0 0.0 3.634351370000001 6.294881225397555 0.0 3.634351370000001 2.0982937417991856 5.934870934989993" Properties=species:S:1:pos:R:3:spacegroup_kinds:I:1:momenta:R:3:forces:R:3 spacegroup="P 1" unit_cell=conventional occupancy="_JSON {\"0\": {\"Li\": 1}, \"1\": {\"Li\": 1}, \"2\": {\"Li\": 1}, \"3\": {\"Li\": 1}, \"4\": {\"Li\": 1}, \"5\": {\"Li\": 1}, \"6\": {\"P\": 1}, \"7\": {\"S\": 1}, \"8\": {\"S\": 1}, \"9\": {\"S\": 1}, \"10\": {\"S\": 1}, \"11\": {\"S\": 1}, \"12\": {\"Cl\": 1}}" energy=-53.363311767578125 free_energy=-53.363311767578125 stress="-0.0008131458307616413 1.8291897504241206e-05 -5.1476131375238765e-06 1.8291897504241206e-05 -0.0006430547218769789 1.3915446288592648e-05 -5.1476131375238765e-06 1.3915446288592648e-05 -0.0008169655920937657" pbc="T T T"
Li       9.25522224       7.24680177       3.10361308        0       0.10483657      -0.07881746      -0.07122111       0.00383668      -0.00423162       0.00328839
Li      12.55293465       5.34371964       5.79668732        1       0.03220585      -0.01235583      -0.11864644      -0.00588123       0.00257422       0.00129053
Li       9.25403370       5.33974707       5.79654972        2      -0.01791304      -0.11278665      -0.07891284       0.00846687       0.00243765      -0.00109772
Li      12.55403631       7.24726805       3.10521753        3       0.14686526      -0.06302110       0.00867622      -0.01294269      -0.00414189       0.01005280
Li      10.90259962       4.38807109       3.10199418        4      -0.02862575      -0.14246089      -0.15275879       0.00347218       0.01836625       0.01342173
Li      10.90197562       8.19935965       5.79906030        5       0.01644839       0.02575285       0.09683203      -0.00165796      -0.00870331      -0.00875154
P        7.26851923       4.19672358       2.96786175        6      -0.03432552       0.00210909       0.10722714       0.00221887       0.00465748      -0.01847586
S        7.26834530       6.13689875       2.28222797        7      -0.09279947       0.29149151       0.24498827       0.00451807      -0.02609245       0.00746645
S        8.94851868       3.22687851       2.28278370        8       0.02269121       0.01790670       0.19486432      -0.01980346       0.00784225      -0.00314698
S        5.58956473       3.22630790       2.28140415        9       0.16044934      -0.12865962      -0.05965572       0.01542899       0.00978974       0.00330341
S        7.26846336       4.19679289       5.02378880       10      -0.16470796       0.12990536      -0.18174125      -0.00262575      -0.00223536      -0.00015680
S       10.90225296       6.29409881       4.45153039       11      -0.23419996      -0.09204122       0.10754599       0.00704201      -0.00025321      -0.00752020
Cl       0.00042742       0.00099305      -0.00052440       12       0.08907510       0.16297727      -0.09719783      -0.00207261      -0.00000970       0.00032580
13
Lattice="7.26870274 0.0 0.0 3.634351370000001 6.294881225397555 0.0 3.634351370000001 2.0982937417991856 5.934870934989993" Properties=species:S:1:pos:R:3:spacegroup_kinds:I:1:momenta:R:3:forces:R:3 spacegroup="P 1" unit_cell=conventional occupancy="_JSON {\"0\": {\"Li\": 1}, \"1\": {\"Li\": 1}, \"2\": {\"Li\": 1}, \"3\": {\"Li\": 1}, \"4\": {\"Li\": 1}, \"5\": {\"Li\": 1}, \"6\": {\"P\": 1}, \"7\": {\"S\": 1}, \"8\": {\"S\": 1}, \"9\": {\"S\": 1}, \"10\": {\"S\": 1}, \"11\": {\"S\": 1}, \"12\": {\"Cl\": 1}}" energy=-53.36264419555664 free_energy=-53.36264419555664 stress="-0.0010040500201284885 3.708392250700854e-05 -9.228744602296501e-05 3.708392250700854e-05 -0.00042378701618872583 3.904267941834405e-06 -9.228744602296501e-05 3.904267941834405e-06 -0.0009672418818809092" pbc="T T T"
Li       9.25777050       7.24414619       3.10173308        0      -0.00054499      -0.09885409      -0.05099821       0.00566193      -0.00153689       0.00202577
Li      12.55512440       5.34410483       5.79174808        1       0.10211331       0.01186894      -0.19614041      -0.01341283       0.00491630       0.02292179
Li       9.25209618       5.33455653       5.79498641        2      -0.02497107      -0.20903070      -0.03948863       0.02291322       0.00742038       0.00147888
Li      12.55798282       7.24410790       3.10515585        3       0.08921192      -0.09713301      -0.01212785      -0.03372973       0.00734240       0.01863198
Li      10.90248217       4.38378028       3.09922835        4       0.01773393      -0.11239454      -0.04785046       0.00512780       0.03409439       0.02680716
Li      10.90273243       8.20067568       5.80126497        5       0.01769763       0.05452952       0.05978398      -0.00279858      -0.02080083      -0.01749706
P        7.26698254       4.19774894       2.96929546        6      -0.37381230       0.18667447       0.15539479       0.04212744      -0.00461319      -0.07600517
S        7.26823342       6.13883812       2.28290841        7      -0.00742338       0.18706335      -0.16905673       0.00822497      -0.04386533       0.01341793
S        8.94825762       3.22743688       2.28366440        8      -0.09684131       0.11814470       0.06824029      -0.03692551       0.01100663      -0.00918548
S        5.59152879       3.22468275       2.28085944        9       0.37040522      -0.20664472      -0.05132471      -0.00114554       0.01197695       0.00139333
S        7.26763458       4.19658566       5.02242813       10      -0.10567385      -0.04307515      -0.01267368      -0.00754326      -0.00129904       0.03738864
S       10.90073214       6.29324806       4.45331638       11      -0.16349341      -0.10753106       0.38607624       0.01803288      -0.00484734      -0.02289132
Cl       0.00095912       0.00284086      -0.00123901       12       0.17559830       0.31638228      -0.08983461      -0.00653278       0.00020555       0.00151348
13
Lattice="7.26870274 0.0 0.0 3.634351370000001 6.294881225397555 0.0 3.634351370000001 2.0982937417991856 5.934870934989993" Properties=species:S:1:pos:R:3:spacegroup_kinds:I:1:momenta:R:3:forces:R:3 spacegroup="P 1" unit_cell=conventional occupancy="_JSON {\"0\": {\"Li\": 1}, \"1\": {\"Li\": 1}, \"2\": {\"Li\": 1}, \"3\": {\"Li\": 1}, \"4\": {\"Li\": 1}, \"5\": {\"Li\": 1}, \"6\": {\"P\": 1}, \"7\": {\"S\": 1}, \"8\": {\"S\": 1}, \"9\": {\"S\": 1}, \"10\": {\"S\": 1}, \"11\": {\"S\": 1}, \"12\": {\"Cl\": 1}}" energy=-53.360904693603516 free_energy=-53.360904693603516 stress="-0.0010836443398147821 -0.0001685218303464353 -0.00030176251311786473 -0.0001685218303464353 -0.0002366136177442968 1.6827058061608113e-05 -0.00030176251311786473 1.6827058061608113e-05 -0.0007838041638024151" pbc="T T T"
Li       9.25789257       7.24258408       3.10007654        0      -0.01078070      -0.00143409      -0.00851384       0.01415075      -0.00259462       0.00902054
Li      12.55710270       5.34664072       5.78692947        1       0.05952643       0.15010419      -0.09968203      -0.01648942       0.00534045       0.05007441
Li       9.25116731       5.32485748       5.79359607        2      -0.02707472      -0.26984958      -0.04890375       0.04505988       0.01448663      -0.00032692
Li      12.56027567       7.23962509       3.10629354        3       0.07363089      -0.10715922       0.00361079      -0.04689852       0.02632780       0.01931766
Li      10.90377514       4.38056260       3.09566669        4       0.06146188      -0.06773046      -0.14236287      -0.00193638       0.04686491       0.03756489
Li      10.90639149       8.20325668       5.80262473        5       0.20041402       0.09988158       0.03860048      -0.00373712      -0.04095609      -0.02879883
P        7.26314516       4.19981551       2.97114663        6      -0.56916463       0.20933818       0.38726048       0.16259006      -0.03788129      -0.11584537
S        7.26826250       6.14002599       2.28124483        7       0.10203204       0.07168095      -0.21404905       0.00337604      -0.05010170       0.03263414
S        8.94896019       3.22744376       2.28351313        8       0.04641279       0.03645802      -0.05173390      -0.09526548       0.03538163       0.01241373
S        5.59431748       3.22445224       2.27921390        9       0.28189333      -0.05999848      -0.20203217      -0.04204080      -0.00046823       0.00214179
S        7.26670547       4.19635763       5.02422938       10      -0.17644897      -0.13327533       0.36292433      -0.02119202       0.00542619       0.02482760
S       10.89916250       6.29165292       4.45620811       11      -0.17930536      -0.25768424       0.24384402       0.01790863      -0.00303808      -0.04524057
Cl       0.00180037       0.00466421      -0.00222255       12       0.13740299       0.32966848      -0.26896249      -0.01552562       0.00121244       0.00221695
13
Lattice="7.26870274 0.0 0.0 3.634351370000001 6.294881225397555 0.0 3.634351370000001 2.0982937417991856 5.934870934989993" Properties=species:S:1:pos:R:3:spacegroup_kinds:I:1:momenta:R:3:forces:R:3 spacegroup="P 1" unit_cell=conventional occupancy="_JSON {\"0\": {\"Li\": 1}, \"1\": {\"Li\": 1}, \"2\": {\"Li\": 1}, \"3\": {\"Li\": 1}, \"4\": {\"Li\": 1}, \"5\": {\"Li\": 1}, \"6\": {\"P\": 1}, \"7\": {\"S\": 1}, \"8\": {\"S\": 1}, \"9\": {\"S\": 1}, \"10\": {\"S\": 1}, \"11\": {\"S\": 1}, \"12\": {\"Cl\": 1}}" energy=-53.3579216003418 free_energy=-53.3579216003418 stress="-0.0011016939533874393 -0.00019585268455557525 -0.0004776943533215672 -0.00019585268455557525 -3.943335286749061e-06 5.1260121836094186e-05 -0.0004776943533215672 5.1260121836094186e-05 -0.0005401293165050447" pbc="T T T"
Li       9.25944055       7.24223362       3.10120937        0       0.05598991       0.00511667       0.03560117       0.01073346      -0.00553664       0.01026663
Li      12.55724075       5.35190614       5.78354214        1       0.00589034       0.18023400      -0.07449621      -0.00949851       0.00017799       0.07193763
Li       9.25035792       5.31596546       5.79513233        2      -0.01344685      -0.22035463       0.02215570       0.07257011       0.02336099      -0.01556109
Li      12.56378782       7.23613919       3.10467675        3       0.18538487      -0.06974732      -0.11385208      -0.06595926       0.03990771       0.02493723
Li      10.90777842       4.37709144       3.09160427        4       0.14701573      -0.12747273      -0.14901862      -0.01892263       0.05909228       0.04931498
Li      10.91419062       8.20748975       5.80489602        5       0.27434554       0.08797695       0.11526174      -0.00123338      -0.07373260      -0.04606457
P        7.25953312       4.20086092       2.97418322        6      -0.41145053       0.08098466       0.42308536       0.26085156      -0.05143411      -0.15558389
S        7.26786373       6.14060792       2.27882072        7      -0.18703441       0.01837813      -0.33114797       0.00699009      -0.06728415       0.06654115
S        8.94830517       3.22745650       2.28287722        8      -0.06979605      -0.02840470      -0.11831592      -0.13435803       0.05716654       0.03549245
S        5.59643755       3.22368368       2.27705871        9       0.28376957      -0.18682407      -0.18111112      -0.06901275      -0.01053541       0.01609424
S        7.26625509       4.19491057       5.02785720       10      -0.04651515      -0.23843522       0.60597392      -0.04249382       0.02343567      -0.00259955
S       10.89857989       6.28998476       4.45760156       11      -0.10664377      -0.11221162       0.04535400       0.01636166       0.00463309      -0.05734472
Cl       0.00168385       0.00799442      -0.00375759       12      -0.11750921       0.61075988      -0.27948996      -0.02602850       0.00074866       0.00256942
13
Lattice="7.26870274 0.0 0.0 3.634351370000001 6.294881225397555 0.0 3.634351370000001 2.0982937417991856 5.934870934989993" Properties=species:S:1:pos:R:3:spacegroup_kinds:I:1:momenta:R:3:forces:R:3 spacegroup="P 1" unit_cell=conventional occupancy="_JSON {\"0\": {\"Li\": 1}, \"1\": {\"Li\": 1}, \"2\": {\"Li\": 1}, \"3\": {\"Li\": 1}, \"4\": {\"Li\": 1}, \"5\": {\"Li\": 1}, \"6\": {\"P\": 1}, \"7\": {\"S\": 1}, \"8\": {\"S\": 1}, \"9\": {\"S\": 1}, \"10\": {\"S\": 1}, \"11\": {\"S\": 1}, \"12\": {\"Cl\": 1}}" energy=-53.35316467285156 free_energy=-53.35316467285156 stress="-0.0012426840839907527 -0.00010289432248100638 -0.0005328477127477527 -0.00010289432248100638 0.00028821907471865416 4.342729152995162e-05 -0.0005328477127477527 4.342729152995162e-05 -0.00011324487422825769" pbc="T T T"
Li       9.26153639       7.24192826       3.10073961        0       0.09832584      -0.03805199      -0.10718632       0.00681026      -0.01107873       0.01003333
Li      12.56045832       5.35812620       5.77895519        1       0.11438276       0.14548566      -0.09164854      -0.01263619       0.00088959       0.09171373
Li       9.25103314       5.31084634       5.79496982        2       0.03352459      -0.16588501      -0.03128983       0.08818635       0.02526486      -0.02099343
Li      12.57031235       7.23145808       3.10387996        3       0.19356189      -0.17079072       0.03643706      -0.09454021       0.06089489       0.03497811
Li      10.91574620       4.37353993       3.08495257        4       0.29576684      -0.12574892      -0.23018859      -0.05001298       0.07493433       0.06320146
Li      10.92419025       8.21045060       5.80978066        5       0.23524701       0.07496236       0.13019733       0.00312891      -0.10577738      -0.07551537
P        7.25664399       4.20147118       2.97778868        6      -0.42667724       0.17264101       0.48936392       0.34240037      -0.05243798      -0.17636049
S        7.26598437       6.14148475       2.27554108        7      -0.24672603       0.16179276      -0.42699093       0.02180956      -0.10045156       0.11469598
S        8.94629130       3.22730088       2.28146725        8      -0.16128406      -0.08046103      -0.14872039      -0.15308812       0.07731864       0.06013230
S        5.59886182       3.22242384       2.27650374        9       0.30022569      -0.28620698      -0.08772118      -0.09205572      -0.02071672       0.01616491
S        7.26526066       4.19272067       5.03352203       10      -0.30030561      -0.24230631       0.84555568      -0.05005158       0.04498714      -0.05351546
S       10.89773581       6.28872153       4.45745169       11      -0.05880441       0.01321545      -0.14012486       0.02874422       0.01095931      -0.06784585
Cl       0.00114233       0.01200840      -0.00559390       12      -0.07723727       0.54135370      -0.23768335      -0.03869485      -0.00478643       0.00331075
13
Lattice="7.26870274 0.0 0.0 3.634351370000001 6.294881225397555 0.0 3.634351370000001 2.0982937417991856 5.934870934989993" Properties=species:S:1:pos:R:3:spacegroup_kinds:I:1:momenta:R:3:forces:R:3 spacegroup="P 1" unit_cell=conventional occupancy="_JSON {\"0\": {\"Li\": 1}, \"1\": {\"Li\": 1}, \"2\": {\"Li\": 1}, \"3\": {\"Li\": 1}, \"4\": {\"Li\": 1}, \"5\": {\"Li\": 1}, \"6\": {\"P\": 1}, \"7\": {\"S\": 1}, \"8\": {\"S\": 1}, \"9\": {\"S\": 1}, \"10\": {\"S\": 1}, \"11\": {\"S\": 1}, \"12\": {\"Cl\": 1}}" energy=-53.3465576171875 free_energy=-53.3465576171875 stress="-0.0013746191980317235 0.00015287149290088564 -0.00043351040221750736 0.00015287149290088564 0.0006715973722748458 -4.4321361201582476e-05 -0.00043351040221750736 -4.4321361201582476e-05 0.0005235003773123026" pbc="T T T"
Li       9.26480697       7.24164888       3.09525733        0       0.13330575       0.02993485      -0.14405476       0.00988667      -0.02203015       0.01206481
Li      12.56461863       5.36169225       5.77473125        1       0.14504534       0.08429406      -0.13611493      -0.03089117       0.00951065       0.10872060
Li       9.25193321       5.30397082       5.79262811        2       0.04710048      -0.17742711      -0.07597762       0.10676308       0.02783623      -0.02373513
Li      12.57846297       7.22539943       3.10334808        3       0.32472260      -0.14485887      -0.06139786      -0.12726933       0.08810990       0.04640702
Li      10.92772168       4.37250634       3.07513247        4       0.41905155      -0.04142656      -0.32377346      -0.09148616       0.09076433       0.07388626
Li      10.93392488       8.21237264       5.81176471        5       0.33718426       0.00155467      -0.04176394       0.00778601      -0.13501018      -0.09249441
P        7.25466542       4.20203881       2.98247419        6      -0.31987959      -0.03082513       0.49915705       0.38999164      -0.04561461      -0.20952858
S        7.26433340       6.14369893       2.27288071        7      -0.18505419       0.26639670      -0.16935957       0.03699894      -0.15976584       0.16014680
S        8.94389130       3.22750837       2.28126371        8      -0.42108691       0.21455476       0.07105824      -0.15629753       0.09400452       0.08500741
S        5.60110554       3.21993693       2.27502906        9       0.25855945      -0.29337809      -0.24914743      -0.08804557      -0.01093356       0.02286143
S        7.26276947       4.19016426       5.04078996       10      -0.31896837      -0.45847734       1.12290533      -0.05125893       0.06470498      -0.11595418
S       10.89680447       6.28819240       4.45578119       11      -0.13565802      -0.04973689      -0.26620727       0.04634600       0.00754260      -0.07571694
Cl       0.00010422       0.01597203      -0.00680771       12      -0.28432234       0.59939493      -0.22532379      -0.05252360      -0.00911896       0.00833475
13
Lattice="7.26870274 0.0 0.0 3.634351370000001 6.294881225397555 0.0 3.634351370000001 2.0982937417991856 5.934870934989993" Properties=species:S:1:pos:R:3:spacegroup_kinds:I:1:momenta:R:3:forces:R:3 spacegroup="P 1" unit_cell=conventional occupancy="_JSON {\"0\": {\"Li\": 1}, \"1\": {\"Li\": 1}, \"2\": {\"Li\": 1}, \"3\": {\"Li\": 1}, \"4\": {\"Li\": 1}, \"5\": {\"Li\": 1}, \"6\": {\"P\": 1}, \"7\": {\"S\": 1}, \"8\": {\"S\": 1}, \"9\": {\"S\": 1}, \"10\": {\"S\": 1}, \"11\": {\"S\": 1}, \"12\": {\"Cl\": 1}}" energy=-53.33837890625 free_energy=-53.33837890625 stress="-0.0016562792006880045 0.0005841656820848584 -0.00026777025777846575 0.0005841656820848584 0.0008901226683519781 -0.000179163966095075 -0.00026777025777846575 -0.000179163966095075 0.0011859317310154438" pbc="T T T"
Li       9.27117179       7.24190096       3.09236424        0       0.13789932       0.03314316      -0.02146606      -0.00349241      -0.03008928       0.00317607
Li      12.57035446       5.36254987       5.77247722        1       0.23078913      -0.02198310       0.04435009      -0.06459889       0.02617168       0.11327105
Li       9.25459834       5.29870034       5.79049032        2       0.14080128      -0.12291427      -0.03652384       0.11188497       0.02251685      -0.02658930
Li      12.58957845       7.22014313       3.09989122        3       0.27819616      -0.19166539      -0.12647130      -0.17684090       0.11106307       0.06957018
Li      10.94173738       4.37228413       3.06302526        4       0.42189737       0.04090096      -0.33699545      -0.13888168       0.11261466       0.08789074
Li      10.94762320       8.21354597       5.80922424        5       0.38931589       0.06976293      -0.10359577       0.01597427      -0.15941365      -0.08641940
P        7.25294667       4.20195663       2.98692986        6      -0.21478079      -0.03149301       0.61751070       0.41904762      -0.01654320      -0.22851500
S        7.26246484       6.14577251       2.27192354        7      -0.22668610       0.30693384      -0.05591115       0.06782459      -0.21810129       0.18501087
S        8.94072321       3.22895251       2.28103097        8      -0.44813554       0.12398739      -0.08713818      -0.13770746       0.09814666       0.10740633
S        5.60346837       3.21786767       2.27346061        9       0.36410766      -0.14991819      -0.22166144      -0.08519214      -0.01366727       0.02402892
S        7.25847200       4.18660307       5.04803612       10      -0.78551443      -0.40266454       0.78990031      -0.03472196       0.08507778      -0.17659262
S       10.89522440       6.28764147       4.45411800       11      -0.13409291      -0.13443023      -0.24604509       0.09332480      -0.00388869      -0.08681446
Cl      -0.00120888       0.02009802      -0.00827981       12      -0.15379703       0.48034043      -0.21595283      -0.06662076      -0.01388730       0.01457656
13
Lattice="7.26870274 0.0 0.0 3.634351370000001 6.294881225397555 0.0 3.634351370000001 2.0982937417991856 5.934870934989993" Properties=species:S:1:pos:R:3:spacegroup_kinds:I:1:momenta:R:3:forces:R:3 spacegroup="P 1" unit_cell=conventional occupancy="_JSON {\"0\": {\"Li\": 1}, \"1\": {\"Li\": 1}, \"2\": {\"Li\": 1}, \"3\": {\"Li\": 1}, \"4\": {\"Li\": 1}, \"5\": {\"Li\": 1}, \"6\": {\"P\": 1}, \"7\": {\"S\": 1}, \"8\": {\"S\": 1}, \"9\": {\"S\": 1}, \"10\": {\"S\": 1}, \"11\": {\"S\": 1}, \"12\": {\"Cl\": 1}}" energy=-53.3288688659668 free_energy=-53.3288688659668 stress="-0.001991339260712266 0.0010026239324361086 -7.510698196711019e-05 0.0010026239324361086 0.001052427920512855 -0.0003036257694475353 -7.510698196711019e-05 -0.0003036257694475353 0.001736753503791988" pbc="T T T"
Li       9.27622000       7.24316620       3.09310975        0       0.10993108       0.10221315       0.02615138      -0.02073453      -0.03454428      -0.00668813
Li      12.57885436       5.36234300       5.77746828        1       0.26977739       0.04759625       0.10067180      -0.11947384       0.05751803       0.08546995
Li       9.25830978       5.29646596       5.78875804        2       0.03864009      -0.01397944       0.01666497       0.10884134       0.01468110      -0.03034086
Li      12.59982564       7.21540089       3.09469836        3       0.30522909      -0.07850310      -0.19064598      -0.22597849       0.12926465       0.09371139
Li      10.95389621       4.37321486       3.04901392        4       0.33499885       0.09802321      -0.44565360      -0.17939702       0.13709243       0.10126035
Li      10.96102690       8.21528511       5.80719033        5       0.34763870      -0.02297895      -0.06546982       0.02522504      -0.18551266      -0.08249867
P        7.25159874       4.20153175       2.99130159        6      -0.09605806      -0.08901117       0.52421584       0.43045002       0.02757779      -0.24077356
S        7.26147266       6.14739683       2.27133466        7      -0.19961411       0.19876296       0.01440999       0.09956386      -0.27032140       0.20559663
S        8.93658569       3.23069465       2.27924746        8      -0.50090130       0.22476363      -0.32599974      -0.10410888       0.09229866       0.14618380
S        5.60647107       3.21619690       2.27184859        9       0.47511762      -0.18073824      -0.19161449      -0.09121878      -0.02339250       0.02318868
S        7.25304506       4.18417190       5.05510583       10      -0.64115141      -0.31406481       0.93835860      -0.00018727       0.09739402      -0.23451035
S       10.89404311       6.28739563       4.45146925       11      -0.17057044      -0.07324783      -0.38693871       0.15396576      -0.02057492      -0.08191533
Cl      -0.00254007       0.02198798      -0.00916952       12      -0.27303751       0.10116432      -0.01415027      -0.07694720      -0.02148087       0.02131602
13
Lattice="7.26870274 0.0 0.0 3.634351370000001 6.294881225397555 0.0 3.634351370000001 2.0982937417991856 5.934870934989993" Properties=species:S:1:pos:R:3:spacegroup_kinds:I:1:momenta:R:3:forces:R:3 spacegroup="P 1" unit_cell=conventional occupancy="_JSON {\"0\": {\"Li\": 1}, \"1\": {\"Li\": 1}, \"2\": {\"Li\": 1}, \"3\": {\"Li\": 1}, \"4\": {\"Li\": 1}, \"5\": {\"Li\": 1}, \"6\": {\"P\": 1}, \"7\": {\"S\": 1}, \"8\": {\"S\": 1}, \"9\": {\"S\": 1}, \"10\": {\"S\": 1}, \"11\": {\"S\": 1}, \"12\": {\"Cl\": 1}}" energy=-53.31836700439453 free_energy=-53.31836700439453 stress="-0.0022973446175456047 0.001456506084650755 4.634645665646531e-05 0.001456506084650755 0.0008968286565504968 -0.00040137136238627136 4.634645665646531e-05 -0.00040137136238627136 0.002397108357399702" pbc="T T T"
Li       9.28306693       7.24700894       3.09379447        0       0.21174449       0.11600242       0.04309648      -0.04195168      -0.04291190      -0.01787125
Li      12.58805753       5.36463650       5.77957789        1       0.19448685       0.03195853       0.09501729      -0.16622466       0.08590543       0.06687196
Li       9.25597712       5.29743844       5.78636318        2      -0.11275742       0.01341554      -0.13488063       0.11365391       0.01514490      -0.03136262
Li      12.60980904       7.21165500       3.08455422        3       0.19682840      -0.09635855      -0.27665835      -0.28753284       0.14316548       0.12469492
Li      10.96364511       4.37944386       3.03386142        4       0.23173947       0.22991011      -0.35611258      -0.20956552       0.15038517       0.10403148
Li      10.97356143       8.21305896       5.80540649        5       0.38200602      -0.11841379      -0.01764149       0.03469744      -0.19425011      -0.07664746
P        7.25157651       4.20197519       2.99433698        6       0.03301699       0.12820715       0.31700251       0.41937989       0.03712241      -0.21833028
S        7.26019281       6.14826507       2.27214867        7      -0.09429794       0.04229381       0.10226100       0.14572158      -0.29718107       0.20816119
S        8.93296698       3.23195422       2.27769700        8      -0.52367755       0.12415126      -0.25714150      -0.06500130       0.09302744       0.17112148
S        5.60952729       3.21470028       2.27122255        9       0.38551208      -0.22323292      -0.08789154      -0.09799195      -0.02107389       0.01801700
S        7.24760187       4.18087062       5.06205752       10      -0.69750130      -0.43386477       0.82137961       0.03217804       0.10078480      -0.30251697
S       10.89294234       6.28729308       4.44866882       11      -0.15001697      -0.00761210      -0.40732935       0.20701291      -0.03437033      -0.07967708
Cl      -0.00388911       0.02271356      -0.00906884       12      -0.05708311       0.19354331       0.15889853      -0.08437584      -0.03574834       0.03350747
13