13
Lattice="7.26870274 0.0 0.0 3.634351370000001 6.294881225397555 0.0 3.634351370000001 2.0982937417991856 5.934870934989993" Properties=species:S:1:pos:R:3:spacegroup_kinds:I:1:forces:R:3 spacegroup="P 1" unit_cell=conventional occupancy="_JSON {\"0\": {\"Li\": 1}, \"1\": {\"Li\": 1}, \"2\": {\"Li\": 1}, \"3\": {\"Li\": 1}, \"4\": {\"Li\": 1}, \"5\": {\"Li\": 1}, \"6\": {\"P\": 1}, \"7\": {\"S\": 1}, \"8\": {\"S\": 1}, \"9\": {\"S\": 1}, \"10\": {\"S\": 1}, \"11\": {\"S\": 1}, \"12\": {\"Cl\": 1}}" energy=-53.3634147644043 free_energy=-53.3634147644043 stress="-0.0007942017982713878 -2.4013036181713687e-07 -1.6287916082546872e-07 -2.4013036181713687e-07 -0.0007939283968880773 -1.1095210084022256e-07 -1.6287916082546872e-07 -1.1095210084022256e-07 -0.0007938980706967413" pbc="T T T"
Li       9.25387995       7.24703237       3.10460814        0       0.00422557      -0.00243448       0.00344814
Li      12.55222827       5.34273008       5.79769826        1      -0.00421087       0.00243274      -0.00344102
Li       9.25387995       5.34273008       5.79769826        2       0.00422509       0.00243891      -0.00344712
Li      12.55222827       7.24703237       3.10460814        3      -0.00421243      -0.00243116       0.00344121
Li      10.90305411       4.39057894       3.10460814        4       0.00000239       0.00487553       0.00344764
Li      10.90305411       8.19918351       5.79769826        5       0.00000182      -0.00486348      -0.00344141
P        7.26870274       4.19658748       2.96743547        6       0.00008488       0.00004612       0.00003596
S        7.26870637       6.13578650       2.28182731        7      -0.00001824      -0.01090899       0.00384720
S        8.94810016       3.22699113       2.28182731        8      -0.00945763       0.00544027       0.00384724
S        5.58931258       3.22699113       2.28182731        9       0.00937820       0.00541313       0.00383040
S        7.26870637       4.19658958       5.02426588       10      -0.00001891      -0.00000942      -0.01156901
S       10.90305411       6.29488123       4.45115320       11      -0.00000134      -0.00000060      -0.00000021
Cl       0.00000000       0.00000000       0.00000000       12       0.00000144       0.00000146       0.00000101
