4
Lattice="3.128588 0.0 0.0 -1.5642939988088433 2.709436998432005 0.0 0.0 0.0 5.016955" Properties=species:S:1:pos:R:3:spacegroup_kinds:I:1:forces:R:3 spacegroup="P 1" unit_cell=conventional occupancy="_JSON {\"0\": {\"Al\": 1}, \"1\": {\"Al\": 1}, \"2\": {\"N\": 1}, \"3\": {\"N\": 1}}" energy=-29.673717498779297 free_energy=-29.673717498779297 stress="-0.002225232543423772 -1.2581123201016453e-06 -2.915952457271942e-08 -1.2581123201016453e-06 -0.002227275399491191 -3.1533357258695105e-08 -2.915952457271942e-08 -3.1533357258695105e-08 -0.005453628487884998" pbc="T T T"
Al       1.56429556       0.90314476       2.50490041        0      -0.00003430       0.00002051       0.00553289
Al      -0.00000156       1.80629224       5.01337791        1       0.00003481      -0.00001974       0.00552326
N        1.56429556       0.90314476       4.41849749        2      -0.00003657       0.00002012      -0.00553074
N       -0.00000156       1.80629224       1.91001999        3       0.00003603      -0.00002088      -0.00552532
