4
Lattice="3.128588 0.0 0.0 -1.5642939988088433 2.709436998432005 0.0 0.0 0.0 5.016955" Properties=species:S:1:pos:R:3:spacegroup_kinds:I:1:forces:R:3 spacegroup="P 1" unit_cell=conventional occupancy="_JSON {\"0\": {\"Al\": 1}, \"1\": {\"Al\": 1}, \"2\": {\"N\": 1}, \"3\": {\"N\": 1}}" energy=-29.67371940612793 free_energy=-29.67371940612793 stress="-0.002225465839728713 -1.2833776281695464e-06 -4.315159074508301e-08 -1.2833776281695464e-06 -0.0022274635266512632 -3.414103488807996e-08 -4.315159074508301e-08 -3.414103488807996e-08 -0.005453681107610464" pbc="T T T"
Al       1.56429556       0.90314476       2.50490041        0      -0.00003468       0.00001915       0.00553207
Al      -0.00000156       1.80629224       5.01337791        1       0.00003451      -0.00001977       0.00552437
N        1.56429556       0.90314476       4.41849749        2      -0.00003613       0.00002086      -0.00553023
N       -0.00000156       1.80629224       1.91001999        3       0.00003636      -0.00002014      -0.00552618
