13
Lattice="7.26870274 0.0 0.0 3.634351370000001 6.294881225397555 0.0 3.634351370000001 2.0982937417991856 5.934870934989993" Properties=species:S:1:pos:R:3:spacegroup_kinds:I:1:momenta:R:3:forces:R:3 spacegroup="P 1" unit_cell=conventional occupancy="_JSON {\"0\": {\"Li\": 1}, \"1\": {\"Li\": 1}, \"2\": {\"Li\": 1}, \"3\": {\"Li\": 1}, \"4\": {\"Li\": 1}, \"5\": {\"Li\": 1}, \"6\": {\"P\": 1}, \"7\": {\"S\": 1}, \"8\": {\"S\": 1}, \"9\": {\"S\": 1}, \"10\": {\"S\": 1}, \"11\": {\"S\": 1}, \"12\": {\"Cl\": 1}}" energy=-53.544761657714844 free_energy=-53.544761657714844 stress="0.007297019008547068 0.00028287863824516535 0.005326117388904095 0.00028287863824516535 0.005551820155233145 -0.0016659167595207691 0.005326117388904095 -0.0016659167595207691 0.009506825357675552" pbc="T T T"
Li       9.31676254       7.91930844       4.15433614        0       0.02837143      -0.66946351       0.18514016      -0.03479674      -0.13784696       0.03962431
Li      12.58335276       4.66670638       5.55645303        1      -0.35776087       0.54599338       0.01322052      -0.50593221       0.31509882       0.14449933
Li       9.73292814       5.05008778       5.99779733        2       0.46037438       0.12859645      -0.30836906      -0.45979100      -0.24435247       0.43605858
Li      11.57865354       6.46752577       2.23262935        3      -0.48890654       0.31121602       0.54716095       0.31602612       0.14222464      -0.05493739
Li      10.57298224       3.90786372       3.59427585        4      -0.75088309       0.94196277      -0.59320603      -0.03298150      -0.00512984       0.07080492
Li      11.92256516       8.01044416       5.93627661        5      -0.97307918      -0.86384161       0.69569277      -0.07000972      -0.33148575      -0.10049941
P        7.19537666       4.27638535       2.99823533        6       1.66671574      -3.12139720       0.27983509       0.58405018      -0.88054514      -0.20701635
S        7.19040288       6.17325806       2.31086374        7      -0.14001066       0.30276782       0.63217240      -0.01672705       0.42458165       0.22335041
S        8.81562200       3.28425689       2.10874071        8      -0.26663035       0.96860798       0.47714087      -0.41200793       0.02716757       0.10222010
S        5.40551248       3.37853245       2.38469407        9       1.96702408       0.46172597      -0.08085842       0.24622709      -0.13748091       0.02147199
S        7.40567579       3.90782759       5.08939488       10      -0.66201077      -0.43476593       0.00049960       0.32983160       0.28270113      -0.59254611
S       10.93386407       6.08288386       4.45456796       11       0.50252081       0.92343414      -1.48530921       0.17640331       0.58733022      -0.11568949
Cl       0.21200359       0.50289781      -0.20232647       12      -0.98572502       0.50516376      -0.36311963      -0.12029219      -0.04226285       0.03265909
