13
Lattice="7.26870274 0.0 0.0 3.634351370000001 6.294881225397555 0.0 3.634351370000001 2.0982937417991856 5.934870934989993" Properties=species:S:1:pos:R:3:spacegroup_kinds:I:1:momenta:R:3:forces:R:3 spacegroup="P 1" unit_cell=conventional occupancy="_JSON {\"0\": {\"Li\": 1}, \"1\": {\"Li\": 1}, \"2\": {\"Li\": 1}, \"3\": {\"Li\": 1}, \"4\": {\"Li\": 1}, \"5\": {\"Li\": 1}, \"6\": {\"P\": 1}, \"7\": {\"S\": 1}, \"8\": {\"S\": 1}, \"9\": {\"S\": 1}, \"10\": {\"S\": 1}, \"11\": {\"S\": 1}, \"12\": {\"Cl\": 1}}" energy=-53.3634147644043 free_energy=-53.3634147644043 stress="-0.0007942073279991746 -2.3103639534838294e-07 -1.62179176754762e-07 -2.3103639534838294e-07 -0.0007939345669001341 -9.969037506607492e-08 -1.62179176754762e-07 -9.969037506607492e-08 -0.000793909770436585" pbc="T T T"
Li       9.25387995       7.24703237       3.10460814        0       0.00000000       0.00000000       0.00000000       0.00422553      -0.00243429       0.00344819
Li      12.55222827       5.34273008       5.79769826        1       0.00000000       0.00000000       0.00000000      -0.00421054       0.00243275      -0.00344104
Li       9.25387995       5.34273008       5.79769826        2       0.00000000       0.00000000       0.00000000       0.00422445       0.00243892      -0.00344679
Li      12.55222827       7.24703237       3.10460814        3       0.00000000       0.00000000       0.00000000      -0.00421151      -0.00243061       0.00344091
Li      10.90305411       4.39057894       3.10460814        4       0.00000000       0.00000000       0.00000000       0.00000228       0.00487609       0.00344816
Li      10.90305411       8.19918351       5.79769826        5       0.00000000       0.00000000       0.00000000       0.00000181      -0.00486337      -0.00344151
P        7.26870274       4.19658748       2.96743547        6       0.00000000       0.00000000       0.00000000       0.00008562       0.00004603       0.00003600
S        7.26870637       6.13578650       2.28182731        7       0.00000000       0.00000000       0.00000000      -0.00001819      -0.01090932       0.00384779
S        8.94810016       3.22699113       2.28182731        8       0.00000000       0.00000000       0.00000000      -0.00945803       0.00544024       0.00384735
S        5.58931258       3.22699113       2.28182731        9       0.00000000       0.00000000       0.00000000       0.00937766       0.00541262       0.00383024
S        7.26870637       4.19658958       5.02426588       10       0.00000000       0.00000000       0.00000000      -0.00001873      -0.00000954      -0.01156978
S       10.90305411       6.29488123       4.45115320       11       0.00000000       0.00000000       0.00000000      -0.00000167      -0.00000053      -0.00000094
Cl       0.00000000       0.00000000       0.00000000       12       0.00000000       0.00000000       0.00000000       0.00000135       0.00000102       0.00000145
13
Lattice="7.26870274 0.0 0.0 3.634351370000001 6.294881225397555 0.0 3.634351370000001 2.0982937417991856 5.934870934989993" Properties=species:S:1:pos:R:3:spacegroup_kinds:I:1:momenta:R:3:forces:R:3 spacegroup="P 1" unit_cell=conventional occupancy="_JSON {\"0\": {\"Li\": 1}, \"1\": {\"Li\": 1}, \"2\": {\"Li\": 1}, \"3\": {\"Li\": 1}, \"4\": {\"Li\": 1}, \"5\": {\"Li\": 1}, \"6\": {\"P\": 1}, \"7\": {\"S\": 1}, \"8\": {\"S\": 1}, \"9\": {\"S\": 1}, \"10\": {\"S\": 1}, \"11\": {\"S\": 1}, \"12\": {\"Cl\": 1}}" energy=-53.27594757080078 free_energy=-53.27594757080078 stress="0.0067421505227684975 0.0030132520478218794 0.003708629636093974 0.0030132520478218794 -0.007056456059217453 0.002606887836009264 0.003708629636093974 0.002606887836009264 -0.001539123011752963" pbc="T T T"
Li       9.22057197       7.35654843       3.20660618        0      -0.28391896       0.06241555       0.15495773      -0.00402372      -0.11415502       0.19016597
Li      12.59448334       5.20426207       5.79671790        1       0.29811939      -0.60922742      -0.02974650      -0.19765741      -0.04346545      -0.15687524
Li       9.18205540       5.50077766       5.76470577        2      -0.20730573       0.59883960       0.01236561       0.01654247       0.05569524       0.10424613
Li      12.53988889       7.21831600       3.01339519        3      -0.23597054      -0.17395632       0.05419718      -0.12699702       0.05294321       0.01751616
Li      10.86831320       4.49116975       3.18336081        4      -0.24896816      -0.03188958      -0.03143948      -0.11908060      -0.41950276      -0.15390387
Li      11.21970178       8.18128815       5.90740765        5       0.88802742      -0.43239083       0.19259983       0.17786989      -0.08981232      -0.13859297
P        7.22663307       4.17512461       2.96600523        6      -0.63396543      -0.92875576      -0.46490229      -0.26923561      -1.27928054       0.03699803
S        7.27436226       6.08209199       2.36031780        7      -0.19579465      -0.39596474       0.12707611       0.01382817       0.83276552      -0.26287943
S        8.89386785       3.19888435       2.24802756        8       0.03046547       0.33953237      -0.31005410       0.08544444       0.15208881       0.02723478
S        5.46634088       3.21164036       2.27859691        9      -1.16986601       0.67515137       0.12143679       0.68489826       0.61438286       0.14743069
S        7.35519141       4.09014867       5.01646199       10      -0.27224905      -0.69939089       0.39509223      -0.27514771       0.23333189       0.05102833
S       10.94670175       6.36157376       4.47776386       11       1.23148533       0.42374352       0.12596988       0.02315015       0.04527963       0.14363405
Cl       0.03421073       0.10684071      -0.08571935       12       0.79994092       1.17189312      -0.34755299      -0.00959130      -0.04027090      -0.00600269
13
Lattice="7.26870274 0.0 0.0 3.634351370000001 6.294881225397555 0.0 3.634351370000001 2.0982937417991856 5.934870934989993" Properties=species:S:1:pos:R:3:spacegroup_kinds:I:1:momenta:R:3:forces:R:3 spacegroup="P 1" unit_cell=conventional occupancy="_JSON {\"0\": {\"Li\": 1}, \"1\": {\"Li\": 1}, \"2\": {\"Li\": 1}, \"3\": {\"Li\": 1}, \"4\": {\"Li\": 1}, \"5\": {\"Li\": 1}, \"6\": {\"P\": 1}, \"7\": {\"S\": 1}, \"8\": {\"S\": 1}, \"9\": {\"S\": 1}, \"10\": {\"S\": 1}, \"11\": {\"S\": 1}, \"12\": {\"Cl\": 1}}" energy=-53.656917572021484 free_energy=-53.656917572021484 stress="0.011488225311040878 0.0009720521047711372 0.0007645703153684735 0.0009720521047711372 0.002797140972688794 0.003865191712975502 0.0007645703153684735 0.003865191712975502 -0.004815195221453905" pbc="T T T"
Li       8.90976176       7.41796003       3.62127077        0      -0.70237599       0.51095491       0.67067834       0.07563913       0.14582831       0.13149855
Li      12.32314392       4.88155560       5.72146516        1      -0.70722188      -0.87360215      -0.48592361       0.03328641      -0.29070523       0.04393112
Li       9.16988675       5.76815048       5.91777750        2      -0.27488916      -0.27283548       0.34637702      -0.13157472      -0.04027935      -0.11456726
Li      12.37684492       7.21643238       2.84853444        3      -0.30766522      -0.12597313      -0.58562327      -0.19563903      -0.24684241      -0.02855481
Li      10.78910550       4.27602346       3.32542158        4       0.04314895      -0.26410104       0.56800411      -0.11665803       0.08002210       0.13898605
Li      11.82042911       8.15551154       5.91621882        5       1.05334989      -0.13763524      -0.06843164       0.25546178      -0.00225982      -0.09512559
P        7.20612521       4.17235501       2.97123708        6       0.37159292       1.00507661      -0.02163661       0.02959350      -0.83393967      -0.45692438
S        7.20845081       6.07792775       2.29947419        7       0.85616673       0.78501209      -0.09226581       0.19251224       0.62989974      -0.14881054
S        8.86395639       3.18408675       2.19315397        8      -0.36560220      -0.07325477       0.01212423      -0.01267573       0.31873363      -0.06203163
S        5.46173630       3.23885611       2.29780029        9      -0.13914132      -0.45519118       0.85013031       0.28777432      -0.03186373       0.24082741
S        7.36304998       4.03898529       4.97044659       10      -0.12797722       0.10127120      -0.38647087      -0.09868981       0.39501518       0.82862234
S       10.98117852       6.39255642       4.54891800       11      -0.44587923      -0.34701848      -0.36563066      -0.34048104      -0.16409270      -0.18930785
Cl       0.15054476       0.16589011      -0.11889685       12       0.74649374       0.14729665      -0.44133157       0.02145097       0.04048404      -0.28854334
13
Lattice="7.26870274 0.0 0.0 3.634351370000001 6.294881225397555 0.0 3.634351370000001 2.0982937417991856 5.934870934989993" Properties=species:S:1:pos:R:3:spacegroup_kinds:I:1:momenta:R:3:forces:R:3 spacegroup="P 1" unit_cell=conventional occupancy="_JSON {\"0\": {\"Li\": 1}, \"1\": {\"Li\": 1}, \"2\": {\"Li\": 1}, \"3\": {\"Li\": 1}, \"4\": {\"Li\": 1}, \"5\": {\"Li\": 1}, \"6\": {\"P\": 1}, \"7\": {\"S\": 1}, \"8\": {\"S\": 1}, \"9\": {\"S\": 1}, \"10\": {\"S\": 1}, \"11\": {\"S\": 1}, \"12\": {\"Cl\": 1}}" energy=-53.56693649291992 free_energy=-53.56693649291992 stress="0.006979332305490971 -0.0038706075865775347 -0.0017522956477478147 -0.0038706075865775347 0.01722613535821438 -0.002546442672610283 -0.0017522956477478147 -0.002546442672610283 0.0020641081500798464" pbc="T T T"
Li       8.96921535       7.81681129       4.21171807        0       0.76168110       0.31350107       0.39167830       0.26671779      -0.17052446      -0.37258577
Li      12.32959183       4.30239319       5.75365654        1       0.61658813       0.28330095       0.43888674      -0.00772439       0.60673833      -0.04419038
Li       9.27881122       5.47745024       5.96748283        2       0.39000643      -0.48009287       0.03538079      -0.23710993      -0.12397295       0.09255095
Li      12.20931266       6.89032863       2.80002003        3      -0.01671861      -0.63583388       0.08813966       0.25345609       0.14026012      -0.32882440
Li      10.41784969       4.17659661       3.62729507        4      -0.52747855      -0.03011852       0.02504577       0.10086887      -0.05879553      -0.22766721
Li      12.39707615       8.00029428       5.80812402        5      -0.44705187      -0.44310928      -0.39283287      -0.52117443      -0.12832081      -0.03103971
P        7.21567076       4.18741508       2.88795789        6       0.68422953       1.42509027       0.35282627       0.69141209       0.79041767       0.10360353
S        7.34408609       6.22429515       2.26934812        7       0.09162338       0.04320101       0.09584678      -0.08877029      -1.00481415       0.19514576
S        8.82536066       3.08827069       2.10839894        8       0.14540363      -0.44207205      -1.08525149      -0.11163138       0.27656835       0.30640590
S        5.46667182       3.29743247       2.42453571        9      -1.05956483       0.36948660       0.49198809      -0.74611735      -0.15200925      -0.35892937
S        7.30575063       4.06487172       4.95266007       10      -0.46060304      -0.24068890      -0.49333044       0.61109841       0.13079181       0.18518740
S       10.84031684       6.30743779       4.51545537       11      -0.47227840      -0.94730202       0.97421104       0.13333726      -0.15412700       0.45643002
Cl       0.18772002       0.31372987      -0.17142345       12       0.29416308       0.78463756      -0.92258861      -0.34436271      -0.15221216       0.02391344
13
Lattice="7.26870274 0.0 0.0 3.634351370000001 6.294881225397555 0.0 3.634351370000001 2.0982937417991856 5.934870934989993" Properties=species:S:1:pos:R:3:spacegroup_kinds:I:1:momenta:R:3:forces:R:3 spacegroup="P 1" unit_cell=conventional occupancy="_JSON {\"0\": {\"Li\": 1}, \"1\": {\"Li\": 1}, \"2\": {\"Li\": 1}, \"3\": {\"Li\": 1}, \"4\": {\"Li\": 1}, \"5\": {\"Li\": 1}, \"6\": {\"P\": 1}, \"7\": {\"S\": 1}, \"8\": {\"S\": 1}, \"9\": {\"S\": 1}, \"10\": {\"S\": 1}, \"11\": {\"S\": 1}, \"12\": {\"Cl\": 1}}" energy=-53.50606155395508 free_energy=-53.50606155395508 stress="-0.003783157793805003 0.003198841353878379 0.0007153525948524475 0.003198841353878379 0.010962670668959618 -0.006402580067515373 0.0007153525948524475 -0.006402580067515373 0.0004586887953337282" pbc="T T T"
Li       9.49400628       7.95557187       4.09521840        0       0.18609675      -0.02393781       0.39104070      -0.31175593       0.01383052       0.15696399
Li      12.24783601       4.75093247       5.68536996        1       0.26975359      -0.03154912       0.09643348       0.49610016      -0.35164472       0.12752543
Li       9.40703661       4.99112540       6.06697746        2       0.24521382      -0.65960732       0.27134480      -0.05654806       0.20297550       0.00340473
Li      12.13657787       6.56098967       2.43410838        3      -0.47392763      -0.24934689      -0.81679782      -0.32772395       0.00908794       0.09575041
Li      10.38514636       3.81278359       3.78155019        4       0.49058747      -0.89931111       0.35982280       0.17921355       0.19334444      -0.05812711
Li      12.08042678       7.90488128       5.63362654        5       0.02772693       0.59479555       0.13644605       0.03033557       0.15236786       0.19649562
P        7.20904067       4.25786456       2.87612450        6       0.83174169      -0.60797194       0.39733957      -0.27325064       1.08289909       0.53240120
S        7.22109069       6.26700779       2.25203547        7      -1.34196803       0.95820511      -0.57086663       0.26515168      -0.83880937       0.21234113
S        8.73576697       3.21712405       2.14683628        8      -1.09459085       0.60838349       0.85942985       1.01065278      -0.73876137      -0.81215364
S        5.42610995       3.36655856       2.41538502        9      -0.66940566       0.58851872      -0.81028413      -0.47118372       0.04038736      -0.03509929
S        7.50117049       3.97488575       4.93872766       10       0.67150012      -0.60593797       0.21214739      -0.58610368       0.11846808       0.14536513
S       10.82831659       6.16589498       4.65652354       11      -0.26765813      -0.38738435      -0.25559607       0.16752708      -0.03649994      -0.61004949
Cl       0.22654746       0.37895757      -0.19500035       12       1.12492992       0.71514364      -0.27045996      -0.12241474       0.15235460       0.04518177
13
Lattice="7.26870274 0.0 0.0 3.634351370000001 6.294881225397555 0.0 3.634351370000001 2.0982937417991856 5.934870934989993" Properties=species:S:1:pos:R:3:spacegroup_kinds:I:1:momenta:R:3:forces:R:3 spacegroup="P 1" unit_cell=conventional occupancy="_JSON {\"0\": {\"Li\": 1}, \"1\": {\"Li\": 1}, \"2\": {\"Li\": 1}, \"3\": {\"Li\": 1}, \"4\": {\"Li\": 1}, \"5\": {\"Li\": 1}, \"6\": {\"P\": 1}, \"7\": {\"S\": 1}, \"8\": {\"S\": 1}, \"9\": {\"S\": 1}, \"10\": {\"S\": 1}, \"11\": {\"S\": 1}, \"12\": {\"Cl\": 1}}" energy=-53.544761657714844 free_energy=-53.544761657714844 stress="0.007297019008547068 0.00028287863824516535 0.005326117388904095 0.00028287863824516535 0.005551820155233145 -0.0016659167595207691 0.005326117388904095 -0.0016659167595207691 0.009506825357675552" pbc="T T T"
Li       9.31676254       7.91930844       4.15433614        0       0.02837143      -0.66946351       0.18514016      -0.03479674      -0.13784696       0.03962431
Li      12.58335276       4.66670638       5.55645303        1      -0.35776087       0.54599338       0.01322052      -0.50593221       0.31509882       0.14449933
Li       9.73292814       5.05008778       5.99779733        2       0.46037438       0.12859645      -0.30836906      -0.45979100      -0.24435247       0.43605858
Li      11.57865354       6.46752577       2.23262935        3      -0.48890654       0.31121602       0.54716095       0.31602612       0.14222464      -0.05493739
Li      10.57298224       3.90786372       3.59427585        4      -0.75088309       0.94196277      -0.59320603      -0.03298150      -0.00512984       0.07080492
Li      11.92256516       8.01044416       5.93627661        5      -0.97307918      -0.86384161       0.69569277      -0.07000972      -0.33148575      -0.10049941
P        7.19537666       4.27638535       2.99823533        6       1.66671574      -3.12139720       0.27983509       0.58405018      -0.88054514      -0.20701635
S        7.19040288       6.17325806       2.31086374        7      -0.14001066       0.30276782       0.63217240      -0.01672705       0.42458165       0.22335041
S        8.81562200       3.28425689       2.10874071        8      -0.26663035       0.96860798       0.47714087      -0.41200793       0.02716757       0.10222010
S        5.40551248       3.37853245       2.38469407        9       1.96702408       0.46172597      -0.08085842       0.24622709      -0.13748091       0.02147199
S        7.40567579       3.90782759       5.08939488       10      -0.66201077      -0.43476593       0.00049960       0.32983160       0.28270113      -0.59254611
S       10.93386407       6.08288386       4.45456796       11       0.50252081       0.92343414      -1.48530921       0.17640331       0.58733022      -0.11568949
Cl       0.21200359       0.50289781      -0.20232647       12      -0.98572502       0.50516376      -0.36311963      -0.12029219      -0.04226285       0.03265909
