13
Lattice="7.26870274 0.0 0.0 3.634351370000001 6.294881225397555 0.0 3.634351370000001 2.0982937417991856 5.934870934989993" Properties=species:S:1:pos:R:3:spacegroup_kinds:I:1:forces:R:3 spacegroup="P 1" unit_cell=conventional occupancy="_JSON {\"0\": {\"Li\": 1}, \"1\": {\"Li\": 1}, \"2\": {\"Li\": 1}, \"3\": {\"Li\": 1}, \"4\": {\"Li\": 1}, \"5\": {\"Li\": 1}, \"6\": {\"P\": 1}, \"7\": {\"S\": 1}, \"8\": {\"S\": 1}, \"9\": {\"S\": 1}, \"10\": {\"S\": 1}, \"11\": {\"S\": 1}, \"12\": {\"Cl\": 1}}" energy=-53.3634147644043 free_energy=-53.3634147644043 stress="-0.0007942073279991746 -2.3103639534838294e-07 -1.62179176754762e-07 -2.3103639534838294e-07 -0.0007939345669001341 -9.969037506607492e-08 -1.62179176754762e-07 -9.969037506607492e-08 -0.000793909770436585" pbc="T T T"
Li       9.25387995       7.24703237       3.10460814        0       0.00422553      -0.00243429       0.00344819
Li      12.55222827       5.34273008       5.79769826        1      -0.00421054       0.00243275      -0.00344104
Li       9.25387995       5.34273008       5.79769826        2       0.00422445       0.00243892      -0.00344679
Li      12.55222827       7.24703237       3.10460814        3      -0.00421151      -0.00243061       0.00344091
Li      10.90305411       4.39057894       3.10460814        4       0.00000228       0.00487609       0.00344816
Li      10.90305411       8.19918351       5.79769826        5       0.00000181      -0.00486337      -0.00344151
P        7.26870274       4.19658748       2.96743547        6       0.00008562       0.00004603       0.00003600
S        7.26870637       6.13578650       2.28182731        7      -0.00001819      -0.01090932       0.00384779
S        8.94810016       3.22699113       2.28182731        8      -0.00945803       0.00544024       0.00384735
S        5.58931258       3.22699113       2.28182731        9       0.00937766       0.00541262       0.00383024
S        7.26870637       4.19658958       5.02426588       10      -0.00001873      -0.00000954      -0.01156978
S       10.90305411       6.29488123       4.45115320       11      -0.00000167      -0.00000053      -0.00000094
Cl       0.00000000       0.00000000       0.00000000       12       0.00000135       0.00000102       0.00000145
