4
Lattice="3.128588 0.0 0.0 -1.5642939988088433 2.709436998432005 0.0 0.0 0.0 5.016955" Properties=species:S:1:pos:R:3:spacegroup_kinds:I:1:momenta:R:3:forces:R:3 spacegroup="P 1" unit_cell=conventional occupancy="_JSON {\"0\": {\"Al\": 1}, \"1\": {\"Al\": 1}, \"2\": {\"N\": 1}, \"3\": {\"N\": 1}}" energy=-29.623741149902344 free_energy=-29.623741149902344 stress="0.004300320520997047 -0.00867269467562437 0.002882164902985096 -0.00867269467562437 -0.006943918764591217 -0.0044347685761749744 0.002882164902985096 -0.0044347685761749744 -0.014838343486189842" pbc="T T T"
Al       1.54321208       0.89379621       2.53645986        0      -0.00705353      -0.41529119       0.79444924      -0.25250253       0.39303041      -0.87833786
Al       0.03580899       1.79893950       4.98957805        1       0.09337885      -0.29525165      -0.61191887      -0.16601461       0.14058164       0.62744939
N        1.59619753       0.90645093       4.40111852        2      -0.02189803       1.09350698       0.27120861      -0.08899377      -0.09593877       0.34910768
N       -0.05911263       1.83464210       1.91219265        3      -0.06442734      -0.38296415      -0.45373907       0.50751102      -0.43767327      -0.09821948
