4
Lattice="3.128588 0.0 0.0 -1.5642939988088433 2.709436998432005 0.0 0.0 0.0 5.016955" Properties=species:S:1:pos:R:3:spacegroup_kinds:I:1:momenta:R:3:forces:R:3 spacegroup="P 1" unit_cell=conventional occupancy="_JSON {\"0\": {\"Al\": 1}, \"1\": {\"Al\": 1}, \"2\": {\"N\": 1}, \"3\": {\"N\": 1}}" energy=-29.673715591430664 free_energy=-29.673715591430664 stress="-0.0022253068163990974 -1.238300228578737e-06 -5.14833722320418e-08 -1.238300228578737e-06 -0.0022274081129580736 -7.324502604433292e-08 -5.14833722320418e-08 -7.324502604433292e-08 -0.00545367319136858" pbc="T T T"
Al       1.56429556       0.90314476       2.50490041        0       0.68448204       0.53670047       0.91071479      -0.00003386       0.00002060       0.00553167
Al      -0.00000156       1.80629224       5.01337791        1       0.31075784       0.39520501      -1.87833745       0.00003508      -0.00001916       0.00552475
N        1.56429556       0.90314476       4.41849749        2      -0.23293981      -0.79739853      -0.40745139      -0.00003647       0.00001997      -0.00553057
N       -0.00000156       1.80629224       1.91001999        3      -0.76230006      -0.13450696       1.37507406       0.00003519      -0.00002154      -0.00552561
4
Lattice="3.128588 0.0 0.0 -1.5642939988088433 2.709436998432005 0.0 0.0 0.0 5.016955" Properties=species:S:1:pos:R:3:spacegroup_kinds:I:1:momenta:R:3:forces:R:3 spacegroup="P 1" unit_cell=conventional occupancy="_JSON {\"0\": {\"Al\": 1}, \"1\": {\"Al\": 1}, \"2\": {\"N\": 1}, \"3\": {\"N\": 1}}" energy=-29.433591842651367 free_energy=-29.433591842651367 stress="-0.01377355121076107 -0.016446299850940704 0.012948793359100819 -0.016446299850940704 -0.023968618363142014 0.009969739243388176 0.012948793359100819 0.009969739243388176 -0.012059437111020088" pbc="T T T"
Al       1.60246142       0.92231284       2.54150849        0       0.57498239      -0.13492002       1.02882476      -1.31301355      -0.49033496      -0.87831396
Al       0.00328788       1.81111140       4.94718774        1      -0.44725813       0.00118079      -1.07867322      -0.30154172      -0.59423327       1.18011904
N        1.53678588       0.85870779       4.38099594        2       0.14052038      -0.46066749       0.20203880       0.28490791       0.67984539       1.25553632
N       -0.05228247       1.80432671       2.00436660        3      -0.26824467       0.59440674      -0.15219035       1.32964718       0.40472281      -1.55734146
4
Lattice="3.128588 0.0 0.0 -1.5642939988088433 2.709436998432005 0.0 0.0 0.0 5.016955" Properties=species:S:1:pos:R:3:spacegroup_kinds:I:1:momenta:R:3:forces:R:3 spacegroup="P 1" unit_cell=conventional occupancy="_JSON {\"0\": {\"Al\": 1}, \"1\": {\"Al\": 1}, \"2\": {\"N\": 1}, \"3\": {\"N\": 1}}" energy=-29.5672550201416 free_energy=-29.5672550201416 stress="0.01291585247963667 0.0017025324050337076 0.003579344367608428 0.0017025324050337076 -0.02585703134536743 -0.005369178485125303 0.003579344367608428 -0.005369178485125303 -0.011435388587415218" pbc="T T T"
Al       1.59598187       0.90138485       2.55101265        0      -0.85004008      -0.64755172      -0.41676304      -0.33522663       0.74370432      -1.26921487
Al      -0.01311800       1.79082859       4.96769658        1      -0.24557007      -0.74327803       1.65595820      -0.18280350      -0.17026818       1.21499729
N        1.52960408       0.86779349       4.41996340        2       0.16413048       0.60763577       0.63654560       0.31887755       0.39321434      -0.09056898
N       -0.00060097       1.87475190       1.90756520        3       0.93147965       0.78319394      -1.87574069       0.19915248      -0.96665061       0.14478679
4
Lattice="3.128588 0.0 0.0 -1.5642939988088433 2.709436998432005 0.0 0.0 0.0 5.016955" Properties=species:S:1:pos:R:3:spacegroup_kinds:I:1:momenta:R:3:forces:R:3 spacegroup="P 1" unit_cell=conventional occupancy="_JSON {\"0\": {\"Al\": 1}, \"1\": {\"Al\": 1}, \"2\": {\"N\": 1}, \"3\": {\"N\": 1}}" energy=-29.40627098083496 free_energy=-29.40627098083496 stress="0.010688900016248226 0.016498256474733353 -0.00816403329372406 0.016498256474733353 -0.009423302486538887 -0.015553933568298817 -0.00816403329372406 -0.015553933568298817 -0.061254072934389114" pbc="T T T"
Al       1.53423928       0.87298461       2.51007452        0      -1.60925421       0.09619223      -1.03262317       0.74608850       1.00298548       0.03482359
Al      -0.01349004       1.78470221       5.05709166        1       0.21561218      -0.04339827       1.72443287       0.02271212       0.40732801      -1.66436839
N        1.55208973       0.92225131       4.42203507        2       0.38659410       0.63935832      -0.93002922       0.04495809      -0.39009553      -0.56986213
N        0.09667398       1.88681818       1.81230437        3       1.00704790      -0.69215232       0.23821960      -0.81375873      -1.02021801       2.19940662
4
Lattice="3.128588 0.0 0.0 -1.5642939988088433 2.709436998432005 0.0 0.0 0.0 5.016955" Properties=species:S:1:pos:R:3:spacegroup_kinds:I:1:momenta:R:3:forces:R:3 spacegroup="P 1" unit_cell=conventional occupancy="_JSON {\"0\": {\"Al\": 1}, \"1\": {\"Al\": 1}, \"2\": {\"N\": 1}, \"3\": {\"N\": 1}}" energy=-29.201902389526367 free_energy=-29.201902389526367 stress="-0.026440877467393875 0.03815547004342079 -0.03138257935643196 0.03815547004342079 -0.004877317231148481 0.001543804188258946 -0.03138257935643196 0.001543804188258946 -0.0518198236823082" pbc="T T T"
Al       1.49382401       0.87740193       2.48150489        0      -0.08661664      -0.02748812       0.25595535       2.48428226      -0.46186787       1.22611856
Al      -0.02076737       1.79337849       5.08843296        1       0.00716736       0.60209048      -1.27068275       0.64723194       0.57433426      -2.36003971
N        1.60157222       0.96971686       4.33361321        2       0.49437263       0.53651037      -0.17473341      -0.53882569      -0.70145297       1.74608898
N        0.13924909       1.81421454       1.89535166        3      -0.41492333      -1.11111282       1.18946093      -2.59268856       0.58898669      -0.61216784
4
Lattice="3.128588 0.0 0.0 -1.5642939988088433 2.709436998432005 0.0 0.0 0.0 5.016955" Properties=species:S:1:pos:R:3:spacegroup_kinds:I:1:momenta:R:3:forces:R:3 spacegroup="P 1" unit_cell=conventional occupancy="_JSON {\"0\": {\"Al\": 1}, \"1\": {\"Al\": 1}, \"2\": {\"N\": 1}, \"3\": {\"N\": 1}}" energy=-29.574628829956055 free_energy=-29.574628829956055 stress="-0.023617858067154884 -0.01432129181921482 -0.011127971112728119 -0.01432129181921482 0.015029938891530037 -0.0028546839021146297 -0.011127971112728119 -0.0028546839021146297 -0.014440266415476799" pbc="T T T"
Al       1.53421961       0.88369268       2.53780582        0       1.55944075       0.36820819       1.55971065       0.29264492      -0.24000560      -0.91367781
Al      -0.00048007       1.82107762       4.98837343        1       1.01688584       0.86374320      -2.47525472       0.94369513       0.52251625       0.78486520
N        1.63583965       0.96584650       4.40663186        2      -0.31021913      -0.52489319       1.27117373      -1.15103757      -0.78907168       0.05687983
N       -0.01177519       1.75252285       1.90648730        3      -2.26610745      -0.70705829      -0.35562954      -0.08530259       0.50656104       0.07193279
4
Lattice="3.128588 0.0 0.0 -1.5642939988088433 2.709436998432005 0.0 0.0 0.0 5.016955" Properties=species:S:1:pos:R:3:spacegroup_kinds:I:1:momenta:R:3:forces:R:3 spacegroup="P 1" unit_cell=conventional occupancy="_JSON {\"0\": {\"Al\": 1}, \"1\": {\"Al\": 1}, \"2\": {\"N\": 1}, \"3\": {\"N\": 1}}" energy=-29.3720703125 free_energy=-29.3720703125 stress="-0.005629729479551315 -0.018719403073191643 0.015849562361836433 -0.018719403073191643 -0.032272789627313614 0.017212118953466415 0.015849562361836433 0.017212118953466415 -0.00729819992557168" pbc="T T T"
Al       1.57072836       0.88046440       2.56331977        0      -0.00039178      -0.37629493      -0.57844070      -1.34386444      -0.44065839      -1.50707793
Al       0.05055072       1.86456078       4.94968571        1       0.52727038       0.77034148       1.04960232      -0.49129021      -1.36432981       1.82584667
N        1.58204797       0.88176660       4.44992391        2      -0.27832270      -1.02263387      -0.55459291       0.15003696       1.16375375      -0.85894644
N       -0.12661087       1.75915462       1.88869866        3      -0.24855591       0.62858723       0.08343136       1.68511796       0.64123452       0.54017752
4
Lattice="3.128588 0.0 0.0 -1.5642939988088433 2.709436998432005 0.0 0.0 0.0 5.016955" Properties=species:S:1:pos:R:3:spacegroup_kinds:I:1:momenta:R:3:forces:R:3 spacegroup="P 1" unit_cell=conventional occupancy="_JSON {\"0\": {\"Al\": 1}, \"1\": {\"Al\": 1}, \"2\": {\"N\": 1}, \"3\": {\"N\": 1}}" energy=-29.596925735473633 free_energy=-29.596925735473633 stress="0.015976393595337868 -0.0045060873962938786 0.0060187107883393764 -0.0045060873962938786 -0.025499192997813225 -0.004597102291882038 0.0060187107883393764 -0.004597102291882038 -0.010013855993747711" pbc="T T T"
Al       1.53284809       0.86390065       2.51395077        0      -1.59464522      -0.16469626      -1.74991322      -0.27820912       0.89915764      -0.15420242
Al       0.06317843       1.83227863       5.00948382        1       0.38440003      -1.80666622       1.59449913      -0.58708483      -0.41271669       0.16724917
N        1.58572475       0.89623786       4.41422576        2       0.14193204       1.12964953      -0.09119144       0.25704107       0.38076627       0.00228176
N       -0.08152112       1.83862424       1.90381444        3       1.06831313       0.84171288       0.24660561       0.60825276      -0.86720747      -0.01532842
4
Lattice="3.128588 0.0 0.0 -1.5642939988088433 2.709436998432005 0.0 0.0 0.0 5.016955" Properties=species:S:1:pos:R:3:spacegroup_kinds:I:1:momenta:R:3:forces:R:3 spacegroup="P 1" unit_cell=conventional occupancy="_JSON {\"0\": {\"Al\": 1}, \"1\": {\"Al\": 1}, \"2\": {\"N\": 1}, \"3\": {\"N\": 1}}" energy=-29.462554931640625 free_energy=-29.462554931640625 stress="-0.005697273649275303 0.01084945723414421 -0.00390656478703022 0.01084945723414421 -0.019134003669023514 -0.0127031821757555 -0.00390656478703022 -0.0127031821757555 -0.011871381662786007" pbc="T T T"
Al       1.48347331       0.88264397       2.44527931        0      -0.30454593       1.01149587      -0.60004536       0.88392973       0.95768350       1.70776927
Al       0.06164410       1.77681257       5.07306073        1      -0.86715292      -0.75617403       0.43048904      -0.30080700       0.71655303      -1.72279871
N        1.61717712       0.94947184       4.40498427        2       0.38645901       0.04830099       0.18623287      -0.07233943      -0.67485976       0.48910666
N       -0.01486936       1.85626145       1.92266700        3       0.78523984      -0.30362287      -0.01667646      -0.51078337      -0.99937677      -0.47407687
4
Lattice="3.128588 0.0 0.0 -1.5642939988088433 2.709436998432005 0.0 0.0 0.0 5.016955" Properties=species:S:1:pos:R:3:spacegroup_kinds:I:1:momenta:R:3:forces:R:3 spacegroup="P 1" unit_cell=conventional occupancy="_JSON {\"0\": {\"Al\": 1}, \"1\": {\"Al\": 1}, \"2\": {\"N\": 1}, \"3\": {\"N\": 1}}" energy=-29.51875114440918 free_energy=-29.51875114440918 stress="-0.02337089739739895 0.006540060508996248 -0.016098283231258392 0.006540060508996248 0.0066972775384783745 -0.00048240734031423926 -0.016098283231258392 -0.00048240734031423926 -0.02216132916510105" pbc="T T T"
Al       1.50607636       0.94974320       2.46463697        0       1.15921266       0.62635143       1.50689895       1.24247670      -0.60704494       1.15697527
Al       0.01335470       1.75088038       5.06242874        1      -0.91111973       0.14825272      -0.88962653       0.51474679       0.69610596      -1.43089008
N        1.62637960       0.90489620       4.42127858        2      -0.14223560      -0.64065062       0.21498413      -0.71771848      -0.51824230      -0.07984860
N        0.02538012       1.82158362       1.88963029        3      -0.10585732      -0.13395361      -0.83225648      -1.03950489       0.42918134       0.35376346
4
Lattice="3.128588 0.0 0.0 -1.5642939988088433 2.709436998432005 0.0 0.0 0.0 5.016955" Properties=species:S:1:pos:R:3:spacegroup_kinds:I:1:momenta:R:3:forces:R:3 spacegroup="P 1" unit_cell=conventional occupancy="_JSON {\"0\": {\"Al\": 1}, \"1\": {\"Al\": 1}, \"2\": {\"N\": 1}, \"3\": {\"N\": 1}}" energy=-29.605009078979492 free_energy=-29.605009078979492 stress="0.0015959677984938025 -0.006785839330404997 -0.003095420775935054 -0.006785839330404997 0.0017808489501476288 0.0017246119678020477 -0.003095420775935054 0.0017246119678020477 -0.02311510592699051" pbc="T T T"
Al       1.56693923       0.93861027       2.54470908        0       1.44875378      -0.98943914       1.48437355      -0.01659346      -0.29131189      -1.20299721
Al      -0.01304567       1.78057345       4.99752455        1       0.01689816       1.11024988      -1.70729922       0.38438743       0.02358317       0.50759590
N        1.58384202       0.87104969       4.42155576        2      -0.67927477      -0.02704956      -0.19037165      -0.39236915       0.15177733      -0.39792657
N        0.00122213       1.81989283       1.85992053        3      -0.78637712      -0.09376123       0.41329739       0.02457510       0.11595142       1.09332776
4
Lattice="3.128588 0.0 0.0 -1.5642939988088433 2.709436998432005 0.0 0.0 0.0 5.016955" Properties=species:S:1:pos:R:3:spacegroup_kinds:I:1:momenta:R:3:forces:R:3 spacegroup="P 1" unit_cell=conventional occupancy="_JSON {\"0\": {\"Al\": 1}, \"1\": {\"Al\": 1}, \"2\": {\"N\": 1}, \"3\": {\"N\": 1}}" energy=-29.47020721435547 free_energy=-29.47020721435547 stress="0.0032031284645199776 -0.01780189760029316 0.011838385835289955 -0.01780189760029316 -0.041349057108163834 0.00735978689044714 0.011838385835289955 0.00735978689044714 -0.005160385277122259" pbc="T T T"
Al       1.62755628       0.89950074       2.54516752        0       1.04970850      -0.99981830      -0.80202886      -1.41064668       0.15933260      -0.91779107
Al      -0.00757056       1.81703571       4.95606290        1      -0.03758011       0.11959857      -0.16512777      -0.26242688      -0.84351671       1.41445923
N        1.52756233       0.85151202       4.42065483        2      -0.42752159       0.29023056      -0.07965782       0.31765670       0.98894823      -0.00115508
N       -0.06966669       1.84442119       1.93994535        3      -0.58460677       0.58998912       1.04681451       1.35541689      -0.30476403      -0.49551302
4
Lattice="3.128588 0.0 0.0 -1.5642939988088433 2.709436998432005 0.0 0.0 0.0 5.016955" Properties=species:S:1:pos:R:3:spacegroup_kinds:I:1:momenta:R:3:forces:R:3 spacegroup="P 1" unit_cell=conventional occupancy="_JSON {\"0\": {\"Al\": 1}, \"1\": {\"Al\": 1}, \"2\": {\"N\": 1}, \"3\": {\"N\": 1}}" energy=-29.452987670898438 free_energy=-29.452987670898438 stress="-0.0132249491289258 -0.02374998666346073 0.007911426946520805 -0.02374998666346073 -0.04793192073702812 -0.007333338726311922 0.007911426946520805 -0.007333338726311922 0.0286329947412014" pbc="T T T"
Al       1.63184042       0.85684028       2.46693551        0      -0.97589040      -0.55899483      -1.34838299      -1.39010429       1.11026633       1.17303610
Al      -0.02377745       1.82170281       4.98999601        1      -0.28018873       0.45883518       1.28013439      -0.08532311       0.08283272       0.34697354
N        1.52792701       0.92957748       4.44479005        2       0.11446486       0.97873253       0.08012625       0.22035953      -0.17398599       0.05599226
N       -0.04718877       1.83921499       2.00086010        3       1.14161431      -0.87857291      -0.01187758       1.25506783      -1.01911306      -1.57600188
4
Lattice="3.128588 0.0 0.0 -1.5642939988088433 2.709436998432005 0.0 0.0 0.0 5.016955" Properties=species:S:1:pos:R:3:spacegroup_kinds:I:1:momenta:R:3:forces:R:3 spacegroup="P 1" unit_cell=conventional occupancy="_JSON {\"0\": {\"Al\": 1}, \"1\": {\"Al\": 1}, \"2\": {\"N\": 1}, \"3\": {\"N\": 1}}" energy=-29.536319732666016 free_energy=-29.536319732666016 stress="-0.01985766738653183 0.013828925788402557 -0.00571733433753252 0.013828925788402557 -0.0031639295630156994 -0.001671008882112801 -0.00571733433753252 -0.001671008882112801 -0.006260488647967577" pbc="T T T"
Al       1.56291508       0.86348347       2.43836901        0      -1.44558888       0.38889083       0.34074974       0.67285949       0.11609289       1.45909607
Al      -0.01834143       1.83613136       5.05736567        1       0.19731489      -0.00921574       1.04742062       0.06595160       0.15003555      -1.19267368
N        1.54726699       0.95741147       4.47045647        2      -0.01024015       0.05685052       0.14844062       0.09761477      -0.44420910      -0.65174758
N        0.05576966       1.77068661       1.90062727        3       1.25851417      -0.43652563      -1.53661089      -0.83642602       0.17808050       0.38532460
4
Lattice="3.128588 0.0 0.0 -1.5642939988088433 2.709436998432005 0.0 0.0 0.0 5.016955" Properties=species:S:1:pos:R:3:spacegroup_kinds:I:1:momenta:R:3:forces:R:3 spacegroup="P 1" unit_cell=conventional occupancy="_JSON {\"0\": {\"Al\": 1}, \"1\": {\"Al\": 1}, \"2\": {\"N\": 1}, \"3\": {\"N\": 1}}" energy=-29.531002044677734 free_energy=-29.531002044677734 stress="-0.018294285982847214 0.01570752263069153 -0.011607756838202477 0.01570752263069153 0.0031478004530072212 0.004605744034051895 -0.011607756838202477 0.004605744034051895 -0.017258740961551666" pbc="T T T"
Al       1.54701073       0.87273542       2.46070918        0       0.71855696      -0.11584401       0.49435307       1.07476521      -0.28505781       1.06925535
Al      -0.01761629       1.84389393       5.05391117        1       0.19346424       0.17720433      -0.69190062       0.23187791      -0.07942164      -1.16825151
N        1.56395351       0.94331122       4.45961402        2       0.32487409      -0.12409427      -0.51346287      -0.11547117      -0.20503101      -0.72920281
N        0.06831358       1.75176765       1.87546342        3      -1.23689528       0.06273393       0.71101049      -1.19117188       0.56951058       0.82819861
4
Lattice="3.128588 0.0 0.0 -1.5642939988088433 2.709436998432005 0.0 0.0 0.0 5.016955" Properties=species:S:1:pos:R:3:spacegroup_kinds:I:1:momenta:R:3:forces:R:3 spacegroup="P 1" unit_cell=conventional occupancy="_JSON {\"0\": {\"Al\": 1}, \"1\": {\"Al\": 1}, \"2\": {\"N\": 1}, \"3\": {\"N\": 1}}" energy=-29.613210678100586 free_energy=-29.613210678100586 stress="-0.008381586521863937 -0.004276774358004332 0.005492827855050564 -0.004276774358004332 -0.01393709983676672 0.0014804642414674163 0.005492827855050564 0.0014804642414674163 0.012475373223423958" pbc="T T T"
Al       1.57767908       0.87033374       2.48321564        0       0.42145991      -0.10085972       0.75449343      -0.50598800       0.14215292       0.64867783
Al       0.00878680       1.84488739       5.00616582        1       0.94842512       0.04829675      -0.67234571      -0.28190812      -0.37569591       0.05942809
N        1.54733734       0.91884312       4.41695255        2      -0.50233571      -0.06173858      -0.86681681       0.26756564       0.16352394       0.34766701
N       -0.02491936       1.77881441       1.96659673        3      -0.86754932       0.11430150       0.78466917       0.52033055       0.07001895      -1.05577290
4
Lattice="3.128588 0.0 0.0 -1.5642939988088433 2.709436998432005 0.0 0.0 0.0 5.016955" Properties=species:S:1:pos:R:3:spacegroup_kinds:I:1:momenta:R:3:forces:R:3 spacegroup="P 1" unit_cell=conventional occupancy="_JSON {\"0\": {\"Al\": 1}, \"1\": {\"Al\": 1}, \"2\": {\"N\": 1}, \"3\": {\"N\": 1}}" energy=-29.55784034729004 free_energy=-29.55784034729004 stress="-0.016363896429538727 -0.0029477456118911505 0.012903903611004353 -0.0029477456118911505 -0.006208064034581184 0.0015376281226053834 0.012903903611004353 0.0015376281226053834 -0.002714703558012843" pbc="T T T"
Al       1.59068818       0.88023427       2.52274586        0      -0.41625528       0.17887061       0.33160834      -0.90884531      -0.14031322      -0.36868072
Al       0.01872290       1.83477378       4.97781998        1       0.14973937      -0.20763028      -0.17578525      -0.72829700      -0.10046384       0.72652805
N        1.52039169       0.92489994       4.39464374        2       0.19754418       0.25939866       0.47781865       0.72475797      -0.09604958       0.71573949
N       -0.04216868       1.77342024       1.96745699        3       0.06897171      -0.23063901      -0.63364166       0.91238439       0.33682647      -1.07358694
4
Lattice="3.128588 0.0 0.0 -1.5642939988088433 2.709436998432005 0.0 0.0 0.0 5.016955" Properties=species:S:1:pos:R:3:spacegroup_kinds:I:1:momenta:R:3:forces:R:3 spacegroup="P 1" unit_cell=conventional occupancy="_JSON {\"0\": {\"Al\": 1}, \"1\": {\"Al\": 1}, \"2\": {\"N\": 1}, \"3\": {\"N\": 1}}" energy=-29.621110916137695 free_energy=-29.621110916137695 stress="-0.02150079607963562 0.005276351235806942 -0.003267408348619938 0.005276351235806942 0.010657739825546741 0.0019248486496508121 -0.003267408348619938 0.0019248486496508121 -0.0015899550635367632" pbc="T T T"
Al       1.54767654       0.89587760       2.50832860        0      -0.85810088       0.46896516      -1.00003041       0.39160284      -0.39029059      -0.15032533
Al       0.00665799       1.82067515       5.00342501        1      -0.72966944      -0.11082666       1.46536771      -0.00949452       0.22696838       0.34862864
N        1.57185932       0.94293297       4.45440724        2       0.62349861      -0.37686518       0.64593172      -0.01970180      -0.43335164      -0.83889979
N        0.01256029       1.75229419       1.88600529        3       0.96427170       0.01872665      -1.11126900      -0.36240631       0.59667414       0.64059663
4
Lattice="3.128588 0.0 0.0 -1.5642939988088433 2.709436998432005 0.0 0.0 0.0 5.016955" Properties=species:S:1:pos:R:3:spacegroup_kinds:I:1:momenta:R:3:forces:R:3 spacegroup="P 1" unit_cell=conventional occupancy="_JSON {\"0\": {\"Al\": 1}, \"1\": {\"Al\": 1}, \"2\": {\"N\": 1}, \"3\": {\"N\": 1}}" energy=-29.520854949951172 free_energy=-29.520854949951172 stress="-0.014047525823116302 0.011821070685982704 -0.014255587942898273 0.011821070685982704 -0.005614781752228737 0.00936154741793871 -0.014255587942898273 0.00936154741793871 -0.01957101747393608" pbc="T T T"
Al       1.52999427       0.91403915       2.46474573        0       0.09545003      -0.23101243      -1.18071339       1.21875656      -0.63577396       0.99290186
Al      -0.00890656       1.82180733       5.05208969        1       0.31216963      -0.10747453       0.45537634       0.39472762      -0.38378674      -1.12710261
N        1.59437711       0.88605552       4.45928986        2      -0.04799072      -0.53350342      -0.20523359      -0.40810606       0.35579127      -0.79021627
N        0.05384456       1.77207216       1.87145002        3      -0.35962895       0.87199034       0.93057061      -1.20537817       0.66376942       0.92441726
4
Lattice="3.128588 0.0 0.0 -1.5642939988088433 2.709436998432005 0.0 0.0 0.0 5.016955" Properties=species:S:1:pos:R:3:spacegroup_kinds:I:1:momenta:R:3:forces:R:3 spacegroup="P 1" unit_cell=conventional occupancy="_JSON {\"0\": {\"Al\": 1}, \"1\": {\"Al\": 1}, \"2\": {\"N\": 1}, \"3\": {\"N\": 1}}" energy=-29.61878776550293 free_energy=-29.61878776550293 stress="0.010117664933204651 -0.001821899670176208 -0.001873006927780807 -0.001821899670176208 -0.024783018976449966 0.004591129720211029 -0.001873006927780807 0.004591129720211029 2.631293682497926e-05" pbc="T T T"
Al       1.53818032       0.90928016       2.47247635        0       0.23228662      -0.27447309       1.41733367       0.21201019       0.18702117       0.85530722
Al       0.01802691       1.81430743       5.03506516        1       0.60360843      -0.42930290      -1.11140872       0.03760165      -0.69444084      -0.55142570
N        1.59518010       0.85128044       4.42414644        2       0.09084581       0.02420694      -0.77345442      -0.19470227       0.84070510       0.01228251
N       -0.01452977       1.83034436       1.92467364        3      -0.92674090       0.67956901       0.46752942      -0.05490952      -0.33328551      -0.31616381
4
Lattice="3.128588 0.0 0.0 -1.5642939988088433 2.709436998432005 0.0 0.0 0.0 5.016955" Properties=species:S:1:pos:R:3:spacegroup_kinds:I:1:momenta:R:3:forces:R:3 spacegroup="P 1" unit_cell=conventional occupancy="_JSON {\"0\": {\"Al\": 1}, \"1\": {\"Al\": 1}, \"2\": {\"N\": 1}, \"3\": {\"N\": 1}}" energy=-29.623741149902344 free_energy=-29.623741149902344 stress="0.004300320520997047 -0.00867269467562437 0.002882164902985096 -0.00867269467562437 -0.006943918764591217 -0.0044347685761749744 0.002882164902985096 -0.0044347685761749744 -0.014838343486189842" pbc="T T T"
Al       1.54321208       0.89379621       2.53645986        0      -0.00705353      -0.41529119       0.79444924      -0.25250253       0.39303041      -0.87833786
Al       0.03580899       1.79893950       4.98957805        1       0.09337885      -0.29525165      -0.61191887      -0.16601461       0.14058164       0.62744939
N        1.59619753       0.90645093       4.40111852        2      -0.02189803       1.09350698       0.27120861      -0.08899377      -0.09593877       0.34910768
N       -0.05911263       1.83464210       1.91219265        3      -0.06442734      -0.38296415      -0.45373907       0.50751102      -0.43767327      -0.09821948
