4
Lattice="3.128588 0.0 0.0 -1.5642939988088433 2.709436998432005 0.0 0.0 0.0 5.016955" Properties=species:S:1:pos:R:3:spacegroup_kinds:I:1:forces:R:3 spacegroup="P 1" unit_cell=conventional occupancy="_JSON {\"0\": {\"Al\": 1}, \"1\": {\"Al\": 1}, \"2\": {\"N\": 1}, \"3\": {\"N\": 1}}" energy=-29.673715591430664 free_energy=-29.673715591430664 stress="-0.0022253068163990974 -1.238300228578737e-06 -5.14833722320418e-08 -1.238300228578737e-06 -0.0022274081129580736 -7.324502604433292e-08 -5.14833722320418e-08 -7.324502604433292e-08 -0.00545367319136858" pbc="T T T"
Al       1.56429556       0.90314476       2.50490041        0      -0.00003386       0.00002060       0.00553167
Al      -0.00000156       1.80629224       5.01337791        1       0.00003508      -0.00001916       0.00552475
N        1.56429556       0.90314476       4.41849749        2      -0.00003647       0.00001997      -0.00553057
N       -0.00000156       1.80629224       1.91001999        3       0.00003519      -0.00002154      -0.00552561
