32
Lattice="6.17176593 0.0 0.0 0.0 8.01859859 0.0 0.0 0.0 13.03281824" Properties=species:S:1:pos:R:3:spacegroup_kinds:I:1:forces:R:3 spacegroup="P 1" unit_cell=conventional occupancy="_JSON {\"0\": {\"Li\": 1}, \"1\": {\"Li\": 1}, \"2\": {\"Li\": 1}, \"3\": {\"Li\": 1}, \"4\": {\"Li\": 1}, \"5\": {\"Li\": 1}, \"6\": {\"Li\": 1}, \"7\": {\"Li\": 1}, \"8\": {\"Li\": 1}, \"9\": {\"Li\": 1}, \"10\": {\"Li\": 1}, \"11\": {\"Li\": 1}, \"12\": {\"P\": 1}, \"13\": {\"P\": 1}, \"14\": {\"P\": 1}, \"15\": {\"P\": 1}, \"16\": {\"S\": 1}, \"17\": {\"S\": 1}, \"18\": {\"S\": 1}, \"19\": {\"S\": 1}, \"20\": {\"S\": 1}, \"21\": {\"S\": 1}, \"22\": {\"S\": 1}, \"23\": {\"S\": 1}, \"24\": {\"S\": 1}, \"25\": {\"S\": 1}, \"26\": {\"S\": 1}, \"27\": {\"S\": 1}, \"28\": {\"S\": 1}, \"29\": {\"S\": 1}, \"30\": {\"S\": 1}, \"31\": {\"S\": 1}}" energy=-140.3463134765625 free_energy=-140.3463134765625 stress="-0.002888644812628627 8.500875559036558e-09 1.4110336010730862e-08 8.500875559036558e-09 -0.004072258248925209 1.9612839352589617e-08 1.4110336010730862e-08 1.9612839352589617e-08 -0.002593591343611479" pbc="T T T"
Li       2.40166815       0.26892253       4.33377958        0      -0.01548919       0.00236050       0.00063560
Li       3.77009793       7.74967599       8.69903849        1       0.01548902      -0.00236098      -0.00063146
Li       5.48755105       7.74967602       2.18262941        2      -0.01549355      -0.00236094      -0.00063284
Li       0.68421477       0.26892251      10.85018868        3       0.01549117       0.00236136       0.00063172
Li       3.77009792       4.27822188       8.69903844        4       0.01548869       0.00235802      -0.00063294
Li       2.40166816       3.74037677       4.33377961        5      -0.01548981      -0.00236032       0.00063351
Li       0.68421478       3.74037683      10.85018869        6       0.01549006      -0.00235982       0.00063264
Li       5.48755102       4.27822187       2.18262940        7      -0.01549178       0.00236015      -0.00062971
Li       3.08588287      -0.00000009      -0.00000001        8      -0.00000026      -0.00000013       0.00000055
Li       0.00000002      -0.00000001       6.51640923        9       0.00000172       0.00000176      -0.00000235
Li       3.08588299       4.00929941       0.00000012       10      -0.00000173      -0.00000208      -0.00000071
Li      -0.00000001       4.00929925       6.51640918       11      -0.00000000      -0.00000074      -0.00000061
P        0.93932955       2.00464927       1.16793475       12      -0.00066771       0.00001595       0.03303111
P        5.23243626       6.01394890      11.86488426       13       0.00066439       0.00000107      -0.03306093
P        4.02521224       6.01394895       5.34847528       14      -0.00065088       0.00000072      -0.03306437
P        2.14655384       2.00464968       7.68434317       15       0.00065289       0.00000242       0.03305285
S        5.07612369       2.00464958       1.30682514       16       0.00280160      -0.00000041       0.01274911
S        1.09564229       6.01394893      11.72599291       17      -0.00280280       0.00000001      -0.01274631
S        1.99024106       6.01394894       5.20958384       18       0.00279302      -0.00000028      -0.01274394
S        4.18152498       2.00464965       7.82323418       19      -0.00278974      -0.00000092       0.01274795
S        1.68772171       2.00464972      12.25093570       20       0.03397036      -0.00000060       0.02524911
S        4.48404418       6.01394888       0.78188249       21      -0.03397407       0.00000126      -0.02523583
S        4.77360471       6.01394891       7.29829160       22       0.03397282       0.00000051      -0.02523657
S        1.39816137       2.00464967       5.73452697       23      -0.03397434       0.00000003       0.02524006
S        1.68016693       0.28147995       2.00960376       24       0.02273686      -0.00260117      -0.01691465
S        4.49159899       7.73711922      11.02321413       25      -0.02272943       0.00258536       0.01692584
S        4.76604990       7.73711917       4.50680517       26       0.02272787       0.00258048       0.01692811
S        1.40571581       0.28147966       8.52601310       27      -0.02272803      -0.00258530      -0.01692759
S        4.49159902       4.29077887      11.02321429       28      -0.02272894      -0.00258629       0.01692469
S        1.68016709       3.72781963       2.00960392       29       0.02273107       0.00258571      -0.01692444
S        1.40571582       3.72781964       8.52601309       30      -0.02272755       0.00258623      -0.01692754
S        4.76604987       4.29077867       4.50680505       31       0.02272831      -0.00258172       0.01692992
