13
Lattice="7.26870274 0.0 0.0 3.634351370000001 6.294881225397555 0.0 3.634351370000001 2.0982937417991856 5.934870934989993" Properties=species:S:1:pos:R:3:spacegroup_kinds:I:1:momenta:R:3:forces:R:3 spacegroup="P 1" unit_cell=conventional occupancy="_JSON {\"0\": {\"Li\": 1}, \"1\": {\"Li\": 1}, \"2\": {\"Li\": 1}, \"3\": {\"Li\": 1}, \"4\": {\"Li\": 1}, \"5\": {\"Li\": 1}, \"6\": {\"P\": 1}, \"7\": {\"S\": 1}, \"8\": {\"S\": 1}, \"9\": {\"S\": 1}, \"10\": {\"S\": 1}, \"11\": {\"S\": 1}, \"12\": {\"Cl\": 1}}" energy=-53.55876159667969 free_energy=-53.55876159667969 stress="-0.009666694328188896 0.013109778054058552 0.008087155409157276 0.013109778054058552 -0.0039099836722016335 -0.00086271355394274 0.008087155409157276 -0.00086271355394274 0.0003981343179475516" pbc="T T T"
Li       9.55662012       6.75094298       2.73064199        0       0.49458078       0.00520677       0.82422470       0.04759720       0.29914981      -0.01639608
Li      12.51404736       4.85628231       5.90560647        1       0.26285902      -0.00438312       0.11326380      -0.19108726       0.09470384       0.17607175
Li       9.59719799       4.69010819       5.67052017        2      -0.25342318      -0.19042067      -0.07013935      -0.16171029       0.15167877      -0.05953928
Li      12.90033726       7.46281690       3.68384127        3      -0.15806523      -0.74070905       0.32292393       0.08085002       0.29205966       0.21647948
Li      11.42105146       4.59141589       2.74978773        4      -0.50244103      -0.60830135      -0.60653825      -0.29119542       0.08429146       0.18357088
Li      11.27950994       8.03905684       5.79737582        5       0.46735475      -0.16526640      -0.15160831       0.11271454       0.34574518       0.30179033
P        7.34720506       4.25694279       2.94076805        6      -0.43141203       0.62772895      -2.17425274      -1.72745180      -1.02589488       0.17875454
S        7.12158480       6.18453697       2.35180570        7       0.58696728      -0.85419910      -1.51500384       0.37227476       0.38353175      -0.38533556
S        9.05922001       3.40999586       2.38813804        8      -0.77120289       0.13217840       0.65229650       1.29888535      -0.36182350      -0.54174268
S        5.75736847       3.09408570       2.12013250        9       1.18143095       1.67425893       0.14809953       0.61276591       0.24769308       0.35636851
S        7.21710117       4.08355239       4.97665024       10      -1.07403857       0.09966765       0.41941861       0.22289468       0.13235675       0.19555755
S       11.17452405       6.14019725       4.55757551       11       0.37637374      -0.08006918       0.56384792      -0.49519509      -0.14854850      -0.70639956
Cl      -0.74833532       0.37193093      -0.01328820       12      -0.17898357       0.10430822       1.47346743       0.11865737      -0.49494338       0.10082002
