13
Lattice="7.26870274 0.0 0.0 3.634351370000001 6.294881225397555 0.0 3.634351370000001 2.0982937417991856 5.934870934989993" Properties=species:S:1:pos:R:3:spacegroup_kinds:I:1:momenta:R:3:forces:R:3 spacegroup="P 1" unit_cell=conventional occupancy="_JSON {\"0\": {\"Li\": 1}, \"1\": {\"Li\": 1}, \"2\": {\"Li\": 1}, \"3\": {\"Li\": 1}, \"4\": {\"Li\": 1}, \"5\": {\"Li\": 1}, \"6\": {\"P\": 1}, \"7\": {\"S\": 1}, \"8\": {\"S\": 1}, \"9\": {\"S\": 1}, \"10\": {\"S\": 1}, \"11\": {\"S\": 1}, \"12\": {\"Cl\": 1}}" energy=-53.3634147644043 free_energy=-53.3634147644043 stress="-0.0007942129741422832 -2.335036839440363e-07 -1.705422647546584e-07 -2.335036839440363e-07 -0.0007939597708173096 -1.0922475013330768e-07 -1.705422647546584e-07 -1.0922475013330768e-07 -0.0007939126808196306" pbc="T T T"
Li       9.25387995       7.24703237       3.10460814        0       0.00000000       0.00000000       0.00000000       0.00422627      -0.00243472       0.00344864
Li      12.55222827       5.34273008       5.79769826        1       0.00000000       0.00000000       0.00000000      -0.00421124       0.00243306      -0.00344145
Li       9.25387995       5.34273008       5.79769826        2       0.00000000       0.00000000       0.00000000       0.00422421       0.00243871      -0.00344651
Li      12.55222827       7.24703237       3.10460814        3       0.00000000       0.00000000       0.00000000      -0.00421152      -0.00243075       0.00344084
Li      10.90305411       4.39057894       3.10460814        4       0.00000000       0.00000000       0.00000000       0.00000253       0.00487585       0.00344788
Li      10.90305411       8.19918351       5.79769826        5       0.00000000       0.00000000       0.00000000       0.00000193      -0.00486335      -0.00344142
P        7.26870274       4.19658748       2.96743547        6       0.00000000       0.00000000       0.00000000       0.00008569       0.00004593       0.00003584
S        7.26870637       6.13578650       2.28182731        7       0.00000000       0.00000000       0.00000000      -0.00001801      -0.01090930       0.00384779
S        8.94810016       3.22699113       2.28182731        8       0.00000000       0.00000000       0.00000000      -0.00945837       0.00544049       0.00384732
S        5.58931258       3.22699113       2.28182731        9       0.00000000       0.00000000       0.00000000       0.00937805       0.00541313       0.00383046
S        7.26870637       4.19658958       5.02426588       10       0.00000000       0.00000000       0.00000000      -0.00001931      -0.00000914      -0.01156998
S       10.90305411       6.29488123       4.45115320       11       0.00000000       0.00000000       0.00000000      -0.00000183      -0.00000056      -0.00000071
Cl       0.00000000       0.00000000       0.00000000       12       0.00000000       0.00000000       0.00000000       0.00000161       0.00000065       0.00000132
13
Lattice="7.26870274 0.0 0.0 3.634351370000001 6.294881225397555 0.0 3.634351370000001 2.0982937417991856 5.934870934989993" Properties=species:S:1:pos:R:3:spacegroup_kinds:I:1:momenta:R:3:forces:R:3 spacegroup="P 1" unit_cell=conventional occupancy="_JSON {\"0\": {\"Li\": 1}, \"1\": {\"Li\": 1}, \"2\": {\"Li\": 1}, \"3\": {\"Li\": 1}, \"4\": {\"Li\": 1}, \"5\": {\"Li\": 1}, \"6\": {\"P\": 1}, \"7\": {\"S\": 1}, \"8\": {\"S\": 1}, \"9\": {\"S\": 1}, \"10\": {\"S\": 1}, \"11\": {\"S\": 1}, \"12\": {\"Cl\": 1}}" energy=-53.33002471923828 free_energy=-53.33002471923828 stress="-0.002505933167412877 0.0008352681761607528 -0.00016744590539019555 0.0008352681761607528 0.0010105768451467156 -0.0009540495811961591 -0.00016744590539019555 -0.0009540495811961591 0.00316425203345716" pbc="T T T"
Li       9.26979855       7.24584063       3.09204595        0       0.28380685       0.15398936      -0.36392753      -0.01040606      -0.01358442      -0.02438292
Li      12.50604845       5.34769403       5.76810202        1      -0.22687892      -0.13045719      -0.25910727       0.21018428      -0.12076068       0.15878437
Li       9.26956584       5.32032234       5.78332948        2       0.20302467      -0.23850600      -0.14410483      -0.03096314      -0.02208624       0.02262240
Li      12.59734048       7.23972470       3.10068551        3       0.23433607      -0.07002848       0.18124722      -0.13963422      -0.01046652       0.09779955
Li      10.91322344       4.36154146       3.09722598        4       0.14059374      -0.17564538      -0.01146387      -0.06039360       0.16091444       0.10212322
Li      10.89284713       8.20099010       5.78102367        5      -0.02578408      -0.06618924      -0.13005167      -0.00669955       0.03837321       0.04082109
P        7.26671742       4.18487184       2.95106712        6      -0.51386077      -0.20871543       0.09062074       0.01937996       0.43089008       0.57729447
S        7.27406735       6.15222799       2.27343220        7      -0.15788987       0.74515023      -0.37640609       0.06641228      -0.39799216       0.04038053
S        8.95087785       3.22286460       2.30010136        8       0.33556642      -0.23402607       0.48968551      -0.01693794      -0.04146816      -0.21402425
S        5.57581943       3.23618768       2.28546751        9      -0.29816774       0.29344806      -0.46869591       0.09147128      -0.08206161      -0.10537401
S        7.27245396       4.19712491       5.04455630       10       0.12804957       0.15157813       0.61460515      -0.10962680       0.04713148      -0.50298512
S       10.90178806       6.30110832       4.44866715       11       0.04576201       0.04634662       0.02828245      -0.00636229      -0.03008537      -0.17752403
Cl      -0.00191189      -0.00486409       0.00180892       12      -0.14855794      -0.26694460       0.34931612      -0.00642426       0.04119597      -0.01553531
13
Lattice="7.26870274 0.0 0.0 3.634351370000001 6.294881225397555 0.0 3.634351370000001 2.0982937417991856 5.934870934989993" Properties=species:S:1:pos:R:3:spacegroup_kinds:I:1:momenta:R:3:forces:R:3 spacegroup="P 1" unit_cell=conventional occupancy="_JSON {\"0\": {\"Li\": 1}, \"1\": {\"Li\": 1}, \"2\": {\"Li\": 1}, \"3\": {\"Li\": 1}, \"4\": {\"Li\": 1}, \"5\": {\"Li\": 1}, \"6\": {\"P\": 1}, \"7\": {\"S\": 1}, \"8\": {\"S\": 1}, \"9\": {\"S\": 1}, \"10\": {\"S\": 1}, \"11\": {\"S\": 1}, \"12\": {\"Cl\": 1}}" energy=-53.290653228759766 free_energy=-53.290653228759766 stress="0.0006893307436257601 0.0005054370267316699 0.0013095199828967452 0.0005054370267316699 0.0033639403991401196 -0.001651425496675074 0.0013095199828967452 -0.001651425496675074 0.00500286091119051" pbc="T T T"
Li       9.31962399       7.26889032       3.03283970        0       0.44879525      -0.00940058      -0.18916463      -0.04694843      -0.13497202      -0.05821908
Li      12.49545302       5.29342220       5.74918855        1       0.02658076      -0.36058119      -0.10776768       0.16351932      -0.10093419       0.28010106
Li       9.33136666       5.26787870       5.78142156        2       0.38294896      -0.33225025       0.07209032      -0.09288129      -0.08297034       0.00769857
Li      12.61822379       7.20821357       3.14859552        3       0.02541325      -0.11032151       0.43190478      -0.08274384       0.14956757       0.04840428
Li      10.93253192       4.36826177       3.11422018        4       0.15062939      -0.00119616       0.13365252      -0.15778258       0.07921824       0.02587494
Li      10.90147495       8.17644759       5.73636071        5       0.34829054      -0.23154756      -0.22599259       0.00054209       0.19906926       0.20482647
P        7.25041885       4.20743534       2.96361150        6      -0.28510600       0.85463282       0.81876848       0.43397361       0.07780577       0.30041838
S        7.26942108       6.17503593       2.25672715        7      -0.55992561       0.51004643      -0.35074656       0.11843425      -0.64009821       0.11452758
S        8.96051789       3.20057724       2.32817364        8       0.22481443      -0.18529964       0.84594853      -0.45430052       0.26376179      -0.13736570
S        5.56341031       3.23400698       2.26686899        9      -0.35866511       0.01846766      -0.55219763       0.30870742       0.17047353       0.05258089
S        7.27777215       4.19840990       5.06294637       10      -0.33594814      -0.23909633       0.03022567      -0.15952374       0.08830407      -0.66078639
S       10.90180662       6.30922064       4.43563752       11       0.04358527       0.02338468      -0.39564836       0.02236408      -0.20770535      -0.16397572
Cl      -0.01496359      -0.00576007       0.00439259       12      -0.11141301       0.06316161      -0.51107283      -0.05336048       0.13847983      -0.01408534
13
Lattice="7.26870274 0.0 0.0 3.634351370000001 6.294881225397555 0.0 3.634351370000001 2.0982937417991856 5.934870934989993" Properties=species:S:1:pos:R:3:spacegroup_kinds:I:1:momenta:R:3:forces:R:3 spacegroup="P 1" unit_cell=conventional occupancy="_JSON {\"0\": {\"Li\": 1}, \"1\": {\"Li\": 1}, \"2\": {\"Li\": 1}, \"3\": {\"Li\": 1}, \"4\": {\"Li\": 1}, \"5\": {\"Li\": 1}, \"6\": {\"P\": 1}, \"7\": {\"S\": 1}, \"8\": {\"S\": 1}, \"9\": {\"S\": 1}, \"10\": {\"S\": 1}, \"11\": {\"S\": 1}, \"12\": {\"Cl\": 1}}" energy=-53.22218704223633 free_energy=-53.22218704223633 stress="0.004358270205557346 0.00041346295620314777 0.002130119828507304 0.00041346295620314777 0.00321704032830894 -0.0021000453270971775 0.002130119828507304 -0.0021000453270971775 -0.0005943677970208228" pbc="T T T"
Li       9.37983041       7.25414977       2.97611822        0       0.31127202      -0.13850403      -0.43854209      -0.22473307      -0.05806632      -0.21767651
Li      12.47740834       5.22206858       5.75118082        1      -0.05895531      -0.24042229       0.07079339       0.00808269      -0.02598857       0.26046866
Li       9.37719094       5.21911642       5.85300412        2       0.05659531      -0.39422235       0.46012543      -0.02555371      -0.04670828      -0.25257805
Li      12.59967702       7.25217815       3.18355408        3      -0.16246286       0.36344165      -0.03093151       0.12114775       0.03013252       0.00327490
Li      10.92052661       4.34523842       3.16990044        4      -0.31175780      -0.06623424       0.19224346      -0.10173562      -0.02973243      -0.01779314
Li      10.95791831       8.13063884       5.68051027        5       0.19321408       0.18262076      -0.10510724       0.01910777       0.50194472       0.49180353
P        7.26040052       4.23535038       3.01847838        6       0.81309940       0.43449247       0.96672399       0.21444817      -0.41076016      -0.98011124
S        7.24548678       6.16538562       2.24433560        7      -0.21520514      -0.72950167      -0.30687361       0.23696627      -0.46557370       0.18692495
S        8.96725935       3.18035333       2.34272864        8      -0.51693705      -0.55547679       0.50459287      -0.69413507       0.56553328      -0.03641015
S        5.55762799       3.25079393       2.25107907        9       0.37379237       0.58472300      -0.09949432       0.59795010       0.26672834       0.51818615
S        7.27233817       4.20213818       5.05582823       10      -0.37710528      -0.01994670      -0.29835799      -0.04025418       0.03973012       0.08437577
S       10.89471388       6.32115892       4.41432976       11      -0.04687227       0.15759864      -0.55171164       0.04045421      -0.63768083      -0.01947984
Cl      -0.01376303      -0.00121717      -0.01583331       12      -0.05867747       0.42143155      -0.36346076      -0.15174530       0.27044144      -0.02098509
13
Lattice="7.26870274 0.0 0.0 3.634351370000001 6.294881225397555 0.0 3.634351370000001 2.0982937417991856 5.934870934989993" Properties=species:S:1:pos:R:3:spacegroup_kinds:I:1:momenta:R:3:forces:R:3 spacegroup="P 1" unit_cell=conventional occupancy="_JSON {\"0\": {\"Li\": 1}, \"1\": {\"Li\": 1}, \"2\": {\"Li\": 1}, \"3\": {\"Li\": 1}, \"4\": {\"Li\": 1}, \"5\": {\"Li\": 1}, \"6\": {\"P\": 1}, \"7\": {\"S\": 1}, \"8\": {\"S\": 1}, \"9\": {\"S\": 1}, \"10\": {\"S\": 1}, \"11\": {\"S\": 1}, \"12\": {\"Cl\": 1}}" energy=-53.25544738769531 free_energy=-53.25544738769531 stress="0.0014611283550038934 0.0020196535624563694 0.00307504297234118 0.0020196535624563694 -0.001670647645369172 0.0001388786913594231 0.00307504297234118 0.0001388786913594231 -0.0029941219836473465" pbc="T T T"
Li       9.39735067       7.18147466       2.86800532        0      -0.33884249      -0.76525905      -0.67872651      -0.09489443       0.05274435      -0.19619499
Li      12.46962557       5.22455864       5.77628046        1       0.03208230      -0.00132031       0.10344788      -0.05548868       0.01198910       0.11033122
Li       9.37766517       5.13006279       5.87187413        2       0.04080574      -0.30214114      -0.26787432       0.14848322       0.05219145      -0.26101476
Li      12.57013329       7.34580201       3.19140754        3      -0.22489804       0.54443695       0.23433395       0.20701925      -0.38116461       0.12194227
Li      10.89879175       4.32603695       3.19306948        4       0.07314578      -0.34882831       0.09724334       0.05460960      -0.06717351      -0.01341449
Li      11.00544215       8.20872742       5.70565000        5       0.21315528       0.53847651       0.29050383       0.01121328      -0.06967960       0.19169228
P        7.30674135       4.24371128       3.02454752        6       1.00721043       0.26995118      -0.19332803      -0.93710476      -0.70681667      -0.93143439
S        7.22478868       6.12735358       2.24872500        7      -0.00054773      -1.17441928       0.07767108       0.32366139       0.21758337       0.06155759
S        8.93100614       3.17292212       2.35159832        8      -1.54831663       0.56441856       0.08049107       0.06388409       0.54831123      -0.31385970
S        5.57433122       3.26164011       2.27581385        9       0.73820562       0.28330657       1.08949547       0.60766137       0.13875127       0.46833974
S        7.25803249       4.20653256       5.04700765       10      -0.14349357       0.13238834      -0.08915091       0.11058630       0.17114960       0.41857532
S       10.91035772       6.31661361       4.38749743       11       0.70135377      -0.32620381      -0.63009239      -0.13842508      -0.34088215       0.31573242
Cl      -0.02014696       0.02454720      -0.02211059       12      -0.54986045       0.58519379      -0.11401447      -0.30120561       0.37299621       0.02774750
13
Lattice="7.26870274 0.0 0.0 3.634351370000001 6.294881225397555 0.0 3.634351370000001 2.0982937417991856 5.934870934989993" Properties=species:S:1:pos:R:3:spacegroup_kinds:I:1:momenta:R:3:forces:R:3 spacegroup="P 1" unit_cell=conventional occupancy="_JSON {\"0\": {\"Li\": 1}, \"1\": {\"Li\": 1}, \"2\": {\"Li\": 1}, \"3\": {\"Li\": 1}, \"4\": {\"Li\": 1}, \"5\": {\"Li\": 1}, \"6\": {\"P\": 1}, \"7\": {\"S\": 1}, \"8\": {\"S\": 1}, \"9\": {\"S\": 1}, \"10\": {\"S\": 1}, \"11\": {\"S\": 1}, \"12\": {\"Cl\": 1}}" energy=-53.2400016784668 free_energy=-53.2400016784668 stress="-0.007152012549340725 0.0013791657984256744 0.002955610631033778 0.0013791657984256744 -0.00555387744680047 0.001318006427027285 0.002955610631033778 0.001318006427027285 -0.0019492056453600526" pbc="T T T"
Li       9.35074784       7.06118994       2.73217190        0      -0.19412950      -0.49764553      -0.84043138       0.41072601       0.19388458       0.02270550
Li      12.48759015       5.26424254       5.79375494        1      -0.20786725       0.33227524       0.04072736      -0.07022988       0.04720635       0.02471331
Li       9.37404827       5.08023382       5.77531545        2       0.03085524      -0.26525056      -0.67937997       0.27372032       0.13289064       0.06548481
Li      12.56186595       7.41282790       3.27450621        3       0.12604321       0.23444140       0.62193802       0.37042290      -0.35354584       0.08943316
Li      10.90541796       4.27574959       3.17960912        4       0.22301282       0.04111753      -0.32047680       0.08589523       0.06684573       0.08435271
Li      11.03274552       8.29677755       5.76263620        5       0.09566625       0.22609329       0.31206731       0.01247835      -0.58109742      -0.04556701
P        7.30001369       4.23631499       3.02388130        6      -0.79269163      -0.94025643      -0.33292839      -1.02174687      -0.52118737      -0.44668868
S        7.23599958       6.10584990       2.25814106        7       0.37195062      -0.10926070       0.52873708      -0.02115113       0.63918573       0.05424380
S        8.88867153       3.20372138       2.32908454        8      -0.50336645       0.71405796      -1.11107807       0.76533687       0.12419957      -0.36632720
S        5.61988271       3.27108493       2.30039173        9       0.90633092      -0.06284838       0.62467645      -0.00918924      -0.28651094       0.01242319
S        7.25841965       4.20762745       5.05988055       10       0.23914892       0.29969778       0.83245294       0.08125447       0.33679593       0.26163983
S       10.93657825       6.31012179       4.38530761       11       0.75014171       0.36173266       0.16221755      -0.41757053      -0.19210270       0.22668374
Cl      -0.05025254       0.02410030      -0.02476580       12      -1.04509486      -0.33415424       0.16147790      -0.45994633       0.39343581       0.01690282
13
Lattice="7.26870274 0.0 0.0 3.634351370000001 6.294881225397555 0.0 3.634351370000001 2.0982937417991856 5.934870934989993" Properties=species:S:1:pos:R:3:spacegroup_kinds:I:1:momenta:R:3:forces:R:3 spacegroup="P 1" unit_cell=conventional occupancy="_JSON {\"0\": {\"Li\": 1}, \"1\": {\"Li\": 1}, \"2\": {\"Li\": 1}, \"3\": {\"Li\": 1}, \"4\": {\"Li\": 1}, \"5\": {\"Li\": 1}, \"6\": {\"P\": 1}, \"7\": {\"S\": 1}, \"8\": {\"S\": 1}, \"9\": {\"S\": 1}, \"10\": {\"S\": 1}, \"11\": {\"S\": 1}, \"12\": {\"Cl\": 1}}" energy=-53.24519729614258 free_energy=-53.24519729614258 stress="-0.011066785082221031 -0.0006428970373235643 0.0013057364849373698 -0.0006428970373235643 -0.00324612925760448 0.00082838733214885 0.0013057364849373698 0.00082838733214885 0.004966360051184893" pbc="T T T"
Li       9.38634131       6.98625138       2.61142705        0       0.56607360      -0.38844818      -0.43263393       0.53568393       0.18491822       0.05003910
Li      12.44981627       5.32602908       5.82342299        1      -0.22907618       0.45715618       0.14582170       0.19756517      -0.07923636      -0.03833285
Li       9.41834171       5.08294576       5.67859244        2       0.48066876       0.37257414      -0.59184055       0.09121960       0.00991007       0.23948774
Li      12.60631925       7.46234411       3.38547545        3       0.48147494       0.29140439       0.52959662       0.52153182      -0.19729212       0.03153199
Li      10.95124641       4.33697756       3.08840506        4       0.38818844       0.44304820      -0.66017384      -0.07832095       0.11955617       0.07537398
Li      11.05842272       8.33057614       5.78665145        5       0.01127239      -0.13060513      -0.06319119       0.01527291      -0.69663739      -0.03607703
P        7.27034177       4.19029754       3.00941136        6      -0.67034559      -0.42342941       0.19618656      -0.19438916       0.61171412       0.36417478
S        7.24222160       6.11668481       2.26163887        7      -0.14267007       0.24115345      -0.45732344      -0.18161009       0.00601486       0.32622737
S        8.88797754       3.21440762       2.28483550        8       0.14216483       0.06417389      -0.97210939       0.71273023       0.03251271      -0.03245661
S        5.62943544       3.25982745       2.31980757        9       0.37339143      -0.76822635       0.33153074      -0.51235235      -0.70326477      -0.38411862
S        7.25930144       4.20746910       5.10621974       10      -0.77165261      -0.29356164       0.86518137       0.02761664       0.41543269      -0.63403654
S       10.96221586       6.32238675       4.39758552       11       0.56488501       0.53151770       0.36832062      -0.54745549      -0.05384639      -0.04741522
Cl      -0.09279770       0.01798132      -0.01728307       12      -1.19437497      -0.39675722       0.74063474      -0.58749247       0.35021794       0.08560193
13
Lattice="7.26870274 0.0 0.0 3.634351370000001 6.294881225397555 0.0 3.634351370000001 2.0982937417991856 5.934870934989993" Properties=species:S:1:pos:R:3:spacegroup_kinds:I:1:momenta:R:3:forces:R:3 spacegroup="P 1" unit_cell=conventional occupancy="_JSON {\"0\": {\"Li\": 1}, \"1\": {\"Li\": 1}, \"2\": {\"Li\": 1}, \"3\": {\"Li\": 1}, \"4\": {\"Li\": 1}, \"5\": {\"Li\": 1}, \"6\": {\"P\": 1}, \"7\": {\"S\": 1}, \"8\": {\"S\": 1}, \"9\": {\"S\": 1}, \"10\": {\"S\": 1}, \"11\": {\"S\": 1}, \"12\": {\"Cl\": 1}}" energy=-53.328853607177734 free_energy=-53.328853607177734 stress="-0.0063684615306556225 -0.00045584962936118245 -0.0009713495965115726 -0.00045584962936118245 -0.0017098993994295597 0.00195743958465755 -0.0009713495965115726 0.00195743958465755 0.00847654975950718" pbc="T T T"
Li       9.54741302       6.93857585       2.53699457        0       1.21273986       0.07417503      -0.49661705       0.20226590       0.13251486      -0.13250552
Li      12.42907887       5.35835763       5.84835290        1      -0.13656028      -0.05569782       0.04181899       0.34817660      -0.15878659      -0.06926543
Li       9.48437432       5.14341660       5.63379839        2       0.29919413       0.03293455       0.17612095      -0.34233949      -0.28607115       0.37487492
Li      12.73292411       7.51807935       3.43678632        3       0.66071916       0.28578044       0.43679886       0.27861881      -0.29003191       0.26925042
Li      11.02225129       4.40317914       2.95981581        4       0.44601933       0.32441441      -0.71505225      -0.29208800       0.18880934       0.10363504
Li      11.06611574       8.27369961       5.81398427        5       0.03498033      -0.41832319       0.19948645       0.03427134      -0.40557057      -0.12559535
P        7.22728726       4.20173517       3.00971744        6      -1.14349415       0.88979991      -0.18880805       0.83764362       0.27569592       0.56743622
S        7.24029044       6.12487408       2.26394503        7       0.05894281       0.25616413       0.56759577       0.01763345       0.01566784       0.39841864
S        8.89728182       3.20939530       2.26154689        8       0.79174449       0.15657476      -0.35841931       0.11931188       0.49156594       0.32349631
S        5.63025505       3.22416343       2.32830816        9      -0.11947160      -1.20930141       0.15500846      -0.60052633      -0.80163538      -0.57636547
S        7.23517745       4.18788287       5.12541092       10      -0.73819823      -1.16594431      -0.15070123       0.16213724       0.42534494      -0.89706242
S       10.97953310       6.32862981       4.40294405       11       0.03267672       0.32578714      -0.25387984      -0.13958813       0.14673723      -0.44878769
Cl      -0.13626079       0.02804820       0.00009680       12      -1.39929261       0.50363638       0.58664825      -0.62551695       0.26575944       0.21247031
13
Lattice="7.26870274 0.0 0.0 3.634351370000001 6.294881225397555 0.0 3.634351370000001 2.0982937417991856 5.934870934989993" Properties=species:S:1:pos:R:3:spacegroup_kinds:I:1:momenta:R:3:forces:R:3 spacegroup="P 1" unit_cell=conventional occupancy="_JSON {\"0\": {\"Li\": 1}, \"1\": {\"Li\": 1}, \"2\": {\"Li\": 1}, \"3\": {\"Li\": 1}, \"4\": {\"Li\": 1}, \"5\": {\"Li\": 1}, \"6\": {\"P\": 1}, \"7\": {\"S\": 1}, \"8\": {\"S\": 1}, \"9\": {\"S\": 1}, \"10\": {\"S\": 1}, \"11\": {\"S\": 1}, \"12\": {\"Cl\": 1}}" energy=-53.50229263305664 free_energy=-53.50229263305664 stress="0.001855606329627335 0.002152271568775177 -0.0013511517317965627 0.002152271568775177 0.00257891439832747 0.00013883886276744306 -0.0013511517317965627 0.00013883886276744306 0.0072379158809781075" pbc="T T T"
Li       9.72336113       6.93690901       2.44558619        0       1.08958808       0.10868754      -0.53690393       0.00082792       0.07924833      -0.27346888
Li      12.44682648       5.32551229       5.87156121        1       0.35338364      -0.29867791       0.06645158       0.18946649      -0.09049262      -0.26689363
Li       9.51927856       5.08677122       5.68654544        2       0.00229521      -0.52952116       0.30315780      -0.27378538      -0.22895676       0.17815770
Li      12.83988264       7.53944642       3.50510476        3       0.66858150      -0.08055602       0.40853141       0.12179098      -0.11610359       0.26502389
Li      11.07125499       4.43480589       2.89485098        4       0.15040331       0.22128357       0.09830751      -0.36745322       0.26329505       0.15108158
Li      11.11052842       8.13860770       5.82494664        5       0.17252476      -0.89989743      -0.15752046       0.02743369       0.12394695      -0.01401132
P        7.20362074       4.23415047       3.01490099        6      -0.02799718       0.72284215       0.28085008       0.99510229      -0.52332753      -0.01457189
S        7.23811734       6.14884477       2.27751268        7       0.03700199       0.46152003       0.70883786       0.04963420      -0.01602753       0.29796505
S        8.93549556       3.24486253       2.24853363        8       0.97654954       1.43025113      -0.29994913      -0.39797124       0.57461989       0.59905022
S        5.61500638       3.15712917       2.34258259        9      -0.79267814      -2.00797444       0.12584373      -0.02917159      -0.32270885      -0.46210784
S        7.21207784       4.14569746       5.08952026       10      -0.41006609      -0.58494282      -1.24386190       0.23706768       0.32098264      -0.39542484
S       10.97223717       6.35578325       4.38933511       11      -0.02459260       0.87605097      -0.75495882       0.08784172      -0.32268572      -0.35108685
Cl      -0.19092688       0.05415475       0.02739285       12      -2.19499404       0.58093444       1.00121429      -0.64078367       0.25820974       0.28628680
13
Lattice="7.26870274 0.0 0.0 3.634351370000001 6.294881225397555 0.0 3.634351370000001 2.0982937417991856 5.934870934989993" Properties=species:S:1:pos:R:3:spacegroup_kinds:I:1:momenta:R:3:forces:R:3 spacegroup="P 1" unit_cell=conventional occupancy="_JSON {\"0\": {\"Li\": 1}, \"1\": {\"Li\": 1}, \"2\": {\"Li\": 1}, \"3\": {\"Li\": 1}, \"4\": {\"Li\": 1}, \"5\": {\"Li\": 1}, \"6\": {\"P\": 1}, \"7\": {\"S\": 1}, \"8\": {\"S\": 1}, \"9\": {\"S\": 1}, \"10\": {\"S\": 1}, \"11\": {\"S\": 1}, \"12\": {\"Cl\": 1}}" energy=-53.607234954833984 free_energy=-53.607234954833984 stress="0.006715158931910992 0.006030731834471226 0.0006774493958801031 0.006030731834471226 0.0053164721466600895 -0.002840854227542877 0.0006774493958801031 -0.002840854227542877 0.0033964866306632757" pbc="T T T"
Li       9.84449065       6.95491421       2.30048292        0       0.39004146      -0.01553961      -1.03583829      -0.09729791       0.07247497      -0.10819119
Li      12.52566023       5.29146850       5.86476936        1       0.39171191       0.05505912      -0.14848203      -0.12853463       0.09171921      -0.35253543
Li       9.53686580       4.97196835       5.73340627        2       0.26346064      -0.65445333       0.16786458      -0.09749037      -0.02321063      -0.00600534
Li      12.97516383       7.51448818       3.55273255        3       0.70614041      -0.25259468       0.07877259      -0.11167423       0.08505113       0.21724346
Li      11.07643444       4.49482548       2.95817402        4      -0.36192435       0.27528252       0.34912895      -0.16906911      -0.07616930      -0.06147270
Li      11.17965687       8.03480049       5.81840394        5       0.38339851      -0.07218579       0.16917006      -0.00512315       0.42447501       0.21395169
P        7.21623101       4.23424010       3.02826892        6       1.25846650      -0.39246672       0.15065213       0.33439022      -0.71904635      -0.78721142
S        7.24871837       6.15923289       2.30215081        7       0.04210028       0.11581931       0.97969191       0.07276566      -0.16308267       0.10598478
S        8.93996052       3.29446433       2.24060299        8       0.06258540       1.17026852       0.47812015      -0.17361581       0.24410534       0.65636629
S        5.60242469       3.09937597       2.34187421        9      -0.01576364      -0.99066178      -0.40637633       0.29206502       0.30635357      -0.19704905
S        7.18746019       4.12513009       5.06126879       10      -0.55900129      -0.37471191      -0.74080147       0.41167110       0.11920106       0.23245671
S       10.96175713       6.37737433       4.33320086       11      -0.66919344       0.46471148      -1.34384495       0.20978078      -0.59030747      -0.01973299
Cl      -0.25567417       0.09039502       0.07739007       12      -1.89202242       0.67147292       1.30194272      -0.53786767       0.22843620       0.10619543
13