13
Lattice="7.26870274 0.0 0.0 3.634351370000001 6.294881225397555 0.0 3.634351370000001 2.0982937417991856 5.934870934989993" Properties=species:S:1:pos:R:3:spacegroup_kinds:I:1:forces:R:3 spacegroup="P 1" unit_cell=conventional occupancy="_JSON {\"0\": {\"Li\": 1}, \"1\": {\"Li\": 1}, \"2\": {\"Li\": 1}, \"3\": {\"Li\": 1}, \"4\": {\"Li\": 1}, \"5\": {\"Li\": 1}, \"6\": {\"P\": 1}, \"7\": {\"S\": 1}, \"8\": {\"S\": 1}, \"9\": {\"S\": 1}, \"10\": {\"S\": 1}, \"11\": {\"S\": 1}, \"12\": {\"Cl\": 1}}" energy=-53.3634147644043 free_energy=-53.3634147644043 stress="-0.0007942129741422832 -2.335036839440363e-07 -1.705422647546584e-07 -2.335036839440363e-07 -0.0007939597708173096 -1.0922475013330768e-07 -1.705422647546584e-07 -1.0922475013330768e-07 -0.0007939126808196306" pbc="T T T"
Li       9.25387995       7.24703237       3.10460814        0       0.00422627      -0.00243472       0.00344864
Li      12.55222827       5.34273008       5.79769826        1      -0.00421124       0.00243306      -0.00344145
Li       9.25387995       5.34273008       5.79769826        2       0.00422421       0.00243871      -0.00344651
Li      12.55222827       7.24703237       3.10460814        3      -0.00421152      -0.00243075       0.00344084
Li      10.90305411       4.39057894       3.10460814        4       0.00000253       0.00487585       0.00344788
Li      10.90305411       8.19918351       5.79769826        5       0.00000193      -0.00486335      -0.00344142
P        7.26870274       4.19658748       2.96743547        6       0.00008569       0.00004593       0.00003584
S        7.26870637       6.13578650       2.28182731        7      -0.00001801      -0.01090930       0.00384779
S        8.94810016       3.22699113       2.28182731        8      -0.00945837       0.00544049       0.00384732
S        5.58931258       3.22699113       2.28182731        9       0.00937805       0.00541313       0.00383046
S        7.26870637       4.19658958       5.02426588       10      -0.00001931      -0.00000914      -0.01156998
S       10.90305411       6.29488123       4.45115320       11      -0.00000183      -0.00000056      -0.00000071
Cl       0.00000000       0.00000000       0.00000000       12       0.00000161       0.00000065       0.00000132
