13
Lattice="7.26870274 0.0 0.0 3.634351370000001 6.294881225397555 0.0 3.634351370000001 2.0982937417991856 5.934870934989993" Properties=species:S:1:pos:R:3:spacegroup_kinds:I:1:momenta:R:3:forces:R:3 spacegroup="P 1" unit_cell=conventional occupancy="_JSON {\"0\": {\"Li\": 1}, \"1\": {\"Li\": 1}, \"2\": {\"Li\": 1}, \"3\": {\"Li\": 1}, \"4\": {\"Li\": 1}, \"5\": {\"Li\": 1}, \"6\": {\"P\": 1}, \"7\": {\"S\": 1}, \"8\": {\"S\": 1}, \"9\": {\"S\": 1}, \"10\": {\"S\": 1}, \"11\": {\"S\": 1}, \"12\": {\"Cl\": 1}}" energy=-53.673133850097656 free_energy=-53.673133850097656 stress="0.004762368276715279 -0.004051430616527796 -0.008296792395412922 -0.004051430616527796 0.0037109404802322388 0.00030025187879800797 -0.008296792395412922 0.00030025187879800797 -0.006215768400579691" pbc="T T T"
Li       8.75665061       7.11745054       4.09411712        0      -0.01876536      -0.40686674       0.02300930       0.15475266      -0.07985209       0.04948971
Li      13.09449969       6.05209459       5.85984883        1       0.19598041      -0.12725198      -0.12437892      -0.25836045      -0.13420391      -0.10177039
Li      10.02312729       4.59437178       6.11294080        2       1.58445747       0.39023195       0.44761738      -0.12548624       0.02643324      -0.07618982
Li      12.83850091       7.60340412       3.50572612        3       0.45982159       0.31836885      -0.59800421      -0.47778898      -0.51186687      -0.34944612
Li      10.92731207       4.32390026       3.28600334        4      -0.52910631      -0.10537154      -0.17440150       0.08766094       0.27519387       0.03141966
Li      11.17318566       8.41628223       5.71421988        5      -0.01991984      -0.18400121       0.11374918       0.00980537      -0.54951429       0.21618244
P        7.27200117       4.25062392       2.91132806        6       0.36258084       0.66608096      -0.13874251       1.41345549       0.32524678       0.85805678
S        7.33251944       6.23120503       2.32199337        7       0.25401745      -1.07359515       0.75521088      -0.13044707      -0.22693996      -0.37688738
S        9.05152885       3.26507600       2.21287083        8      -0.00032395       0.42892509      -0.21219404      -0.86149061       0.43180424       0.06082328
S        5.66213205       3.18707873       2.41143121        9       0.54716909      -0.44829772       0.86169264      -0.74446881      -0.56484652      -0.51694226
S        7.28485081       4.28678177       5.00618627       10      -2.03680580       1.13543456       0.76446801       0.39916265       0.33865649      -0.26069778
S       10.95883413       6.23979360       4.68696668       11      -0.39832116       0.64781468      -0.04436161       0.05008231       0.23710789      -0.09065391
Cl      -0.55686796      -0.22980001      -0.60440641       12      -0.40078441      -1.24147181      -1.67366458       0.48312289       0.43278122       0.55661583
