13
Lattice="7.26870274 0.0 0.0 3.634351370000001 6.294881225397555 0.0 3.634351370000001 2.0982937417991856 5.934870934989993" Properties=species:S:1:pos:R:3:spacegroup_kinds:I:1:momenta:R:3:forces:R:3 spacegroup="P 1" unit_cell=conventional occupancy="_JSON {\"0\": {\"Li\": 1}, \"1\": {\"Li\": 1}, \"2\": {\"Li\": 1}, \"3\": {\"Li\": 1}, \"4\": {\"Li\": 1}, \"5\": {\"Li\": 1}, \"6\": {\"P\": 1}, \"7\": {\"S\": 1}, \"8\": {\"S\": 1}, \"9\": {\"S\": 1}, \"10\": {\"S\": 1}, \"11\": {\"S\": 1}, \"12\": {\"Cl\": 1}}" energy=-53.3634147644043 free_energy=-53.3634147644043 stress="-0.0007942212978377938 -2.248796704407141e-07 -1.668779532337794e-07 -2.248796704407141e-07 -0.0007939445786178112 -1.087782166564466e-07 -1.668779532337794e-07 -1.087782166564466e-07 -0.0007939162896946073" pbc="T T T"
Li       9.25387995       7.24703237       3.10460814        0       0.00000000       0.00000000       0.00000000       0.00422534      -0.00243429       0.00344813
Li      12.55222827       5.34273008       5.79769826        1       0.00000000       0.00000000       0.00000000      -0.00421099       0.00243288      -0.00344126
Li       9.25387995       5.34273008       5.79769826        2       0.00000000       0.00000000       0.00000000       0.00422558       0.00243902      -0.00344744
Li      12.55222827       7.24703237       3.10460814        3       0.00000000       0.00000000       0.00000000      -0.00421221      -0.00243116       0.00344102
Li      10.90305411       4.39057894       3.10460814        4       0.00000000       0.00000000       0.00000000       0.00000259       0.00487682       0.00344851
Li      10.90305411       8.19918351       5.79769826        5       0.00000000       0.00000000       0.00000000       0.00000252      -0.00486401      -0.00344185
P        7.26870274       4.19658748       2.96743547        6       0.00000000       0.00000000       0.00000000       0.00008571       0.00004633       0.00003521
S        7.26870637       6.13578650       2.28182731        7       0.00000000       0.00000000       0.00000000      -0.00001826      -0.01091029       0.00384779
S        8.94810016       3.22699113       2.28182731        8       0.00000000       0.00000000       0.00000000      -0.00945842       0.00544079       0.00384776
S        5.58931258       3.22699113       2.28182731        9       0.00000000       0.00000000       0.00000000       0.00937799       0.00541275       0.00383010
S        7.26870637       4.19658958       5.02426588       10       0.00000000       0.00000000       0.00000000      -0.00001898      -0.00000972      -0.01156873
S       10.90305411       6.29488123       4.45115320       11       0.00000000       0.00000000       0.00000000      -0.00000170      -0.00000122      -0.00000026
Cl       0.00000000       0.00000000       0.00000000       12       0.00000000       0.00000000       0.00000000       0.00000082       0.00000205       0.00000103
13
Lattice="7.26870274 0.0 0.0 3.634351370000001 6.294881225397555 0.0 3.634351370000001 2.0982937417991856 5.934870934989993" Properties=species:S:1:pos:R:3:spacegroup_kinds:I:1:momenta:R:3:forces:R:3 spacegroup="P 1" unit_cell=conventional occupancy="_JSON {\"0\": {\"Li\": 1}, \"1\": {\"Li\": 1}, \"2\": {\"Li\": 1}, \"3\": {\"Li\": 1}, \"4\": {\"Li\": 1}, \"5\": {\"Li\": 1}, \"6\": {\"P\": 1}, \"7\": {\"S\": 1}, \"8\": {\"S\": 1}, \"9\": {\"S\": 1}, \"10\": {\"S\": 1}, \"11\": {\"S\": 1}, \"12\": {\"Cl\": 1}}" energy=-53.24692916870117 free_energy=-53.24692916870117 stress="0.0026462264358997345 -0.0010557714849710464 -0.0011172756785526872 -0.0010557714849710464 0.003256590571254492 -0.002844860777258873 -0.0011172756785526872 -0.002844860777258873 -0.002223389223217964" pbc="T T T"
Li       9.23960106       7.28255833       3.11391139        0      -0.00868683      -0.22570331      -0.14987898       0.08630687       0.00179806       0.05618745
Li      12.54948343       5.24226040       5.74939589        1      -0.17988346      -0.03267873      -0.31782384      -0.19236454       0.07522500       0.10647979
Li       9.25974123       5.40784526       5.95830097        2       0.15750011      -0.29431828      -0.17034717       0.05174842       0.00258514      -0.74627876
Li      12.80404667       7.21809211       3.32412839        3       0.97981501      -0.20091161       0.47537355      -0.31432647       0.38510820       0.35531449
Li      10.84100999       4.30210040       3.18254685        4       0.22092723      -0.39173188       0.32446345       0.11837547       0.12227438       0.21044457
Li      10.87936295       8.10221588       5.81877389        5       0.61818495      -0.26349871       0.05773277       0.08619875       0.32729638       0.05632294
P        7.28886661       4.21890590       3.00870350        6      -0.20028347      -0.35293486       1.02233376       0.47276449      -0.46539977      -0.31143492
S        7.28299083       6.15457516       2.25944082        7      -0.61275274      -0.85004798       0.18508743       0.22176859      -0.42333904       0.19411954
S        8.96578499       3.18771886       2.26457494        8      -0.15425834       0.02212871      -1.05141915      -0.58728248       0.29301184       0.20326316
S        5.61261110       3.25974799       2.27998266        9       0.89826795       1.82277978       1.10213433      -0.08183289       0.09734278       0.56781989
S        7.27801677       4.14007812       5.07028208       10      -0.22330064       0.19020569       0.05159908       0.16605626       0.20637199      -0.30987236
S       10.90955960       6.34351986       4.44432995       11      -0.18620330      -0.07880841      -0.17932068      -0.02172445      -0.60301495      -0.10412274
Cl      -0.11175339       0.01810924      -0.12031309       12      -1.30932644       0.65551958      -1.34993455      -0.00568795      -0.01926017      -0.27824306
13
Lattice="7.26870274 0.0 0.0 3.634351370000001 6.294881225397555 0.0 3.634351370000001 2.0982937417991856 5.934870934989993" Properties=species:S:1:pos:R:3:spacegroup_kinds:I:1:momenta:R:3:forces:R:3 spacegroup="P 1" unit_cell=conventional occupancy="_JSON {\"0\": {\"Li\": 1}, \"1\": {\"Li\": 1}, \"2\": {\"Li\": 1}, \"3\": {\"Li\": 1}, \"4\": {\"Li\": 1}, \"5\": {\"Li\": 1}, \"6\": {\"P\": 1}, \"7\": {\"S\": 1}, \"8\": {\"S\": 1}, \"9\": {\"S\": 1}, \"10\": {\"S\": 1}, \"11\": {\"S\": 1}, \"12\": {\"Cl\": 1}}" energy=-53.349365234375 free_energy=-53.349365234375 stress="-0.007890620268881321 0.0029955704230815172 -0.004627528600394726 0.0029955704230815172 0.007024528458714485 -0.0034994324669241905 -0.004627528600394726 -0.0034994324669241905 -0.009638584218919277" pbc="T T T"
Li       9.25779434       7.34397534       3.09385964        0       0.04811170       0.56368675      -0.00507876       0.20762813      -0.30889311       0.30058646
Li      12.37586624       5.09695452       5.79893034        1       0.16220635      -0.60328328      -0.13005069       0.13696253       0.08487111      -0.18907104
Li       9.42404779       4.73704233       5.71889155        2      -0.22559509      -0.91100498       0.26607589       0.58958507       0.36363631       0.24429038
Li      13.02801444       7.75143170       3.97997019        3      -0.55299970       0.69869433      -0.09678762      -0.73925835      -0.86326736      -1.29902577
Li      10.93768269       4.21431334       3.25729360        4      -0.03989957      -0.10955224       0.03873288      -0.17598522       0.42093733       0.13686290
Li      11.22494713       8.21742585       5.87465091        5       0.56918348       0.11510273       0.41500118      -0.07278748      -0.11466516       0.09260409
P        7.37068554       4.18832429       2.98895187        6      -1.13105290       0.15627490       0.41134861      -1.07460475       0.52244842       0.21533571
S        7.31546581       6.15116335       2.37141865        7       0.56284264       1.14004795       0.20565373      -0.13816552      -0.03543103      -0.15143044
S        8.93255455       3.16224428       2.24669347        8       0.24714773      -0.19704400       0.26984104       0.59910405      -0.29046646       0.00146309
S        5.59831850       3.27674515       2.37200335        9      -0.31224204      -0.64156598      -0.16218503       0.45992213       0.01708420      -0.53497273
S        7.32767800       4.24924055       5.05260187       10       1.50317048       0.14185288      -0.51599222      -0.36666226      -0.34667751       0.01275404
S       10.92478020       6.35409240       4.44860182       11       1.05035681      -0.22166054       0.44305847       0.09659173      -0.41125497       0.19338113
Cl      -0.36049679      -0.01451069      -0.37225624       12      -1.88122988      -0.13154855      -1.13961751       0.47766972       0.96167803       0.97722220
13
Lattice="7.26870274 0.0 0.0 3.634351370000001 6.294881225397555 0.0 3.634351370000001 2.0982937417991856 5.934870934989993" Properties=species:S:1:pos:R:3:spacegroup_kinds:I:1:momenta:R:3:forces:R:3 spacegroup="P 1" unit_cell=conventional occupancy="_JSON {\"0\": {\"Li\": 1}, \"1\": {\"Li\": 1}, \"2\": {\"Li\": 1}, \"3\": {\"Li\": 1}, \"4\": {\"Li\": 1}, \"5\": {\"Li\": 1}, \"6\": {\"P\": 1}, \"7\": {\"S\": 1}, \"8\": {\"S\": 1}, \"9\": {\"S\": 1}, \"10\": {\"S\": 1}, \"11\": {\"S\": 1}, \"12\": {\"Cl\": 1}}" energy=-53.63795852661133 free_energy=-53.63795852661133 stress="-0.005970875732600689 0.002067358698695898 0.00461291428655386 0.002067358698695898 0.013454200699925423 -0.002593758748844266 0.00461291428655386 -0.002593758748844266 0.0018288264982402325" pbc="T T T"
Li       8.98062047       7.24158885       3.67214240        0      -0.80622618       0.17802283       0.88465729       0.22308546       0.17516987       0.15453291
Li      12.66316680       5.18445736       5.75066276        1       0.87737845       0.95191364       0.28671299       0.20629823       0.10161816       0.20158017
Li      10.03594371       4.45284326       6.08993512        2       0.62406980      -0.48967621      -0.58174540      -0.34688208       0.10395494      -0.31513250
Li      12.63228947       7.25121671       3.41394877        3       0.68479470      -0.57703682      -0.36075245       0.13835095       0.24348119      -0.06645900
Li      10.92085836       4.27497173       3.23042105        4       0.35105868      -0.27402441      -0.70995943      -0.00047341       0.02100071      -0.01195519
Li      11.82228720       8.05280247       5.92811879        5       0.53998449      -0.18738286      -0.02177479      -0.58279979       0.17269006       0.15532997
P        7.29715659       4.25123323       2.96936671        6       0.16904328      -0.80661459      -0.33713218      -0.15297671       0.31818262       0.37130916
S        7.26011082       6.29260010       2.34373937        7      -1.10660468      -0.02168819      -1.00425008       0.18486664      -1.07002020      -0.25921673
S        8.95295150       3.20033573       2.31847942        8      -0.67096581       1.16442574      -0.18637052      -0.10667238       0.17184103      -0.47050765
S        5.63092305       3.25650017       2.18848026        9       0.09410990       0.35194006       0.22169367       0.13946825       0.15564254       0.64342958
S        7.38735433       4.24625919       5.03995673       10       0.36433319       0.42742498       0.27775613       0.07909659      -0.23494399      -0.41682762
S       10.98046283       6.20384992       4.60040701       11      -0.34785609      -1.99269307       1.31921293      -0.32645476      -0.10790442       0.10018516
Cl      -0.55622121       0.10251221      -0.42578625       12      -0.77311975       1.27538890       0.21195188       0.54509294      -0.05071262      -0.08626821
13
Lattice="7.26870274 0.0 0.0 3.634351370000001 6.294881225397555 0.0 3.634351370000001 2.0982937417991856 5.934870934989993" Properties=species:S:1:pos:R:3:spacegroup_kinds:I:1:momenta:R:3:forces:R:3 spacegroup="P 1" unit_cell=conventional occupancy="_JSON {\"0\": {\"Li\": 1}, \"1\": {\"Li\": 1}, \"2\": {\"Li\": 1}, \"3\": {\"Li\": 1}, \"4\": {\"Li\": 1}, \"5\": {\"Li\": 1}, \"6\": {\"P\": 1}, \"7\": {\"S\": 1}, \"8\": {\"S\": 1}, \"9\": {\"S\": 1}, \"10\": {\"S\": 1}, \"11\": {\"S\": 1}, \"12\": {\"Cl\": 1}}" energy=-53.67827606201172 free_energy=-53.67827606201172 stress="0.004355681128799915 0.002399961929768324 3.120119799859822e-06 0.002399961929768324 0.001782623352482915 -0.00020455135381780565 3.120119799859822e-06 -0.00020455135381780565 -0.006422366946935654" pbc="T T T"
Li       8.86697764       7.27451760       4.10667659        0      -0.05515928      -0.16858891       0.18865295      -0.07326762       0.02679082      -0.11640131
Li      12.96063596       5.75673730       5.91585591        1      -0.02062065       0.44731455       0.00541318       0.12194470      -0.08102794      -0.15113524
Li       9.62162419       4.46051029       5.84077223        2      -1.28327355      -0.28392954      -0.06496945       0.31248832       0.00259385       0.13085784
Li      12.55337575       7.37446216       3.40090174        3      -0.00129235       0.72380225      -0.08770043       0.15158021      -0.02036992       0.02614769
Li      10.92836615       4.41843711       3.19434871        4       0.06283350       0.48031950       0.24092850       0.12000443      -0.33349037      -0.26074821
Li      11.36462977       7.93975871       5.95410528        5      -0.62716664       0.44915087      -0.11196553       0.22322544       0.54799837      -0.28475913
P        7.32062749       4.31994744       2.91365379        6       1.60358982      -0.64887122       0.10627143      -0.15871921      -1.46220803       0.43154272
S        7.29786935       6.19941422       2.20484055        7       0.46319567       0.64093531      -0.54926699      -0.05399685       0.95004106       0.43238646
S        8.98058888       3.23536547       2.28965900        8       0.26720654       0.15846344       0.28686343       0.09962004       0.28030777      -0.16469008
S        5.67305394       3.22905709       2.27970940        9      -0.86184641      -0.08686075       0.65226778      -0.04423209       0.11023758       0.27827513
S        7.42281909       4.28603424       4.98709145       10       0.22770794      -0.71489012       0.14504961      -0.40724385       0.03612280      -0.05797429
S       10.98088294       6.11008735       4.69371814       11       0.14341599       0.94066415      -0.31863499      -0.20541942       0.31959996      -0.13367683
Cl      -0.55755522       0.01811325      -0.40886615       12       0.08140943      -1.93750959      -0.49290948      -0.08598422      -0.37659574      -0.12982488
13
Lattice="7.26870274 0.0 0.0 3.634351370000001 6.294881225397555 0.0 3.634351370000001 2.0982937417991856 5.934870934989993" Properties=species:S:1:pos:R:3:spacegroup_kinds:I:1:momenta:R:3:forces:R:3 spacegroup="P 1" unit_cell=conventional occupancy="_JSON {\"0\": {\"Li\": 1}, \"1\": {\"Li\": 1}, \"2\": {\"Li\": 1}, \"3\": {\"Li\": 1}, \"4\": {\"Li\": 1}, \"5\": {\"Li\": 1}, \"6\": {\"P\": 1}, \"7\": {\"S\": 1}, \"8\": {\"S\": 1}, \"9\": {\"S\": 1}, \"10\": {\"S\": 1}, \"11\": {\"S\": 1}, \"12\": {\"Cl\": 1}}" energy=-53.673133850097656 free_energy=-53.673133850097656 stress="0.004762368276715279 -0.004051430616527796 -0.008296792395412922 -0.004051430616527796 0.0037109404802322388 0.00030025187879800797 -0.008296792395412922 0.00030025187879800797 -0.006215768400579691" pbc="T T T"
Li       8.75665061       7.11745054       4.09411712        0      -0.01876536      -0.40686674       0.02300930       0.15475266      -0.07985209       0.04948971
Li      13.09449969       6.05209459       5.85984883        1       0.19598041      -0.12725198      -0.12437892      -0.25836045      -0.13420391      -0.10177039
Li      10.02312729       4.59437178       6.11294080        2       1.58445747       0.39023195       0.44761738      -0.12548624       0.02643324      -0.07618982
Li      12.83850091       7.60340412       3.50572612        3       0.45982159       0.31836885      -0.59800421      -0.47778898      -0.51186687      -0.34944612
Li      10.92731207       4.32390026       3.28600334        4      -0.52910631      -0.10537154      -0.17440150       0.08766094       0.27519387       0.03141966
Li      11.17318566       8.41628223       5.71421988        5      -0.01991984      -0.18400121       0.11374918       0.00980537      -0.54951429       0.21618244
P        7.27200117       4.25062392       2.91132806        6       0.36258084       0.66608096      -0.13874251       1.41345549       0.32524678       0.85805678
S        7.33251944       6.23120503       2.32199337        7       0.25401745      -1.07359515       0.75521088      -0.13044707      -0.22693996      -0.37688738
S        9.05152885       3.26507600       2.21287083        8      -0.00032395       0.42892509      -0.21219404      -0.86149061       0.43180424       0.06082328
S        5.66213205       3.18707873       2.41143121        9       0.54716909      -0.44829772       0.86169264      -0.74446881      -0.56484652      -0.51694226
S        7.28485081       4.28678177       5.00618627       10      -2.03680580       1.13543456       0.76446801       0.39916265       0.33865649      -0.26069778
S       10.95883413       6.23979360       4.68696668       11      -0.39832116       0.64781468      -0.04436161       0.05008231       0.23710789      -0.09065391
Cl      -0.55686796      -0.22980001      -0.60440641       12      -0.40078441      -1.24147181      -1.67366458       0.48312289       0.43278122       0.55661583
