13
Lattice="7.26870274 0.0 0.0 3.634351370000001 6.294881225397555 0.0 3.634351370000001 2.0982937417991856 5.934870934989993" Properties=species:S:1:pos:R:3:spacegroup_kinds:I:1:forces:R:3 spacegroup="P 1" unit_cell=conventional occupancy="_JSON {\"0\": {\"Li\": 1}, \"1\": {\"Li\": 1}, \"2\": {\"Li\": 1}, \"3\": {\"Li\": 1}, \"4\": {\"Li\": 1}, \"5\": {\"Li\": 1}, \"6\": {\"P\": 1}, \"7\": {\"S\": 1}, \"8\": {\"S\": 1}, \"9\": {\"S\": 1}, \"10\": {\"S\": 1}, \"11\": {\"S\": 1}, \"12\": {\"Cl\": 1}}" energy=-53.3634147644043 free_energy=-53.3634147644043 stress="-0.0007942212978377938 -2.248796704407141e-07 -1.668779532337794e-07 -2.248796704407141e-07 -0.0007939445786178112 -1.087782166564466e-07 -1.668779532337794e-07 -1.087782166564466e-07 -0.0007939162896946073" pbc="T T T"
Li       9.25387995       7.24703237       3.10460814        0       0.00422534      -0.00243429       0.00344813
Li      12.55222827       5.34273008       5.79769826        1      -0.00421099       0.00243288      -0.00344126
Li       9.25387995       5.34273008       5.79769826        2       0.00422558       0.00243902      -0.00344744
Li      12.55222827       7.24703237       3.10460814        3      -0.00421221      -0.00243116       0.00344102
Li      10.90305411       4.39057894       3.10460814        4       0.00000259       0.00487682       0.00344851
Li      10.90305411       8.19918351       5.79769826        5       0.00000252      -0.00486401      -0.00344185
P        7.26870274       4.19658748       2.96743547        6       0.00008571       0.00004633       0.00003521
S        7.26870637       6.13578650       2.28182731        7      -0.00001826      -0.01091029       0.00384779
S        8.94810016       3.22699113       2.28182731        8      -0.00945842       0.00544079       0.00384776
S        5.58931258       3.22699113       2.28182731        9       0.00937799       0.00541275       0.00383010
S        7.26870637       4.19658958       5.02426588       10      -0.00001898      -0.00000972      -0.01156873
S       10.90305411       6.29488123       4.45115320       11      -0.00000170      -0.00000122      -0.00000026
Cl       0.00000000       0.00000000       0.00000000       12       0.00000082       0.00000205       0.00000103
