4
Lattice="3.128588 0.0 0.0 -1.5642939988088433 2.709436998432005 0.0 0.0 0.0 5.016955" Properties=species:S:1:pos:R:3:spacegroup_kinds:I:1:momenta:R:3:forces:R:3 spacegroup="P 1" unit_cell=conventional occupancy="_JSON {\"0\": {\"Al\": 1}, \"1\": {\"Al\": 1}, \"2\": {\"N\": 1}, \"3\": {\"N\": 1}}" energy=-29.623741149902344 free_energy=-29.623741149902344 stress="0.004300450906157494 -0.008672687225043774 0.0028819553554058075 -0.008672687225043774 -0.0069435290060937405 -0.004434466361999512 0.0028819553554058075 -0.004434466361999512 -0.01483919844031334" pbc="T T T"
Al       1.54321203       0.89379625       2.53645984        0      -0.00705475      -0.41529097       0.79444997      -0.25250286       0.39302737      -0.87834477
Al       0.03580902       1.79893954       4.98957805        1       0.09337999      -0.29525055      -0.61191897      -0.16600797       0.14057970       0.62745064
N        1.59619759       0.90645094       4.40111844        2      -0.02189872       1.09350593       0.27120796      -0.08900174      -0.09593634       0.34911230
N       -0.05911262       1.83464209       1.91219260        3      -0.06442652      -0.38296442      -0.45373895       0.50751257      -0.43767071      -0.09821855
