4
Lattice="3.128588 0.0 0.0 -1.5642939988088433 2.709436998432005 0.0 0.0 0.0 5.016955" Properties=species:S:1:pos:R:3:spacegroup_kinds:I:1:momenta:R:3:forces:R:3 spacegroup="P 1" unit_cell=conventional occupancy="_JSON {\"0\": {\"Al\": 1}, \"1\": {\"Al\": 1}, \"2\": {\"N\": 1}, \"3\": {\"N\": 1}}" energy=-29.673717498779297 free_energy=-29.673717498779297 stress="-0.0022254646755754948 -1.436171601199021e-06 -2.59261554447221e-08 -1.436171601199021e-06 -0.0022274369839578867 -2.6237893635538967e-08 -2.59261554447221e-08 -2.6237893635538967e-08 -0.005453679710626602" pbc="T T T"
Al       1.56429556       0.90314476       2.50490041        0       0.68448204       0.53670047       0.91071479      -0.00003494       0.00001883       0.00553160
Al      -0.00000156       1.80629224       5.01337791        1       0.31075784       0.39520501      -1.87833745       0.00003515      -0.00001901       0.00552428
N        1.56429556       0.90314476       4.41849749        2      -0.23293981      -0.79739853      -0.40745139      -0.00003702       0.00001977      -0.00553098
N       -0.00000156       1.80629224       1.91001999        3      -0.76230006      -0.13450696       1.37507406       0.00003678      -0.00001965      -0.00552496
4
Lattice="3.128588 0.0 0.0 -1.5642939988088433 2.709436998432005 0.0 0.0 0.0 5.016955" Properties=species:S:1:pos:R:3:spacegroup_kinds:I:1:momenta:R:3:forces:R:3 spacegroup="P 1" unit_cell=conventional occupancy="_JSON {\"0\": {\"Al\": 1}, \"1\": {\"Al\": 1}, \"2\": {\"N\": 1}, \"3\": {\"N\": 1}}" energy=-29.433591842651367 free_energy=-29.433591842651367 stress="-0.013773612678050995 -0.01644645258784294 0.012948782183229923 -0.01644645258784294 -0.023968784138560295 0.009969730861485004 0.012948782183229923 0.009969730861485004 -0.012059459462761879" pbc="T T T"
Al       1.60246141       0.92231284       2.54150849        0       0.57498222      -0.13491994       1.02882483      -1.31301236      -0.49033439      -0.87831426
Al       0.00328789       1.81111140       4.94718774        1      -0.44725785       0.00118053      -1.07867317      -0.30154154      -0.59423250       1.18011880
N        1.53678587       0.85870780       4.38099594        2       0.14052021      -0.46066722       0.20203857       0.28490719       0.67984504       1.25553560
N       -0.05228246       1.80432671       2.00436660        3      -0.26824457       0.59440668      -0.15219028       1.32964635       0.40472201      -1.55734015
4
Lattice="3.128588 0.0 0.0 -1.5642939988088433 2.709436998432005 0.0 0.0 0.0 5.016955" Properties=species:S:1:pos:R:3:spacegroup_kinds:I:1:momenta:R:3:forces:R:3 spacegroup="P 1" unit_cell=conventional occupancy="_JSON {\"0\": {\"Al\": 1}, \"1\": {\"Al\": 1}, \"2\": {\"N\": 1}, \"3\": {\"N\": 1}}" energy=-29.5672550201416 free_energy=-29.5672550201416 stress="0.01291585061699152 0.0017025250708684325 0.003579364623874426 0.0017025250708684325 -0.025857048109173775 -0.005369133315980434 0.003579364623874426 -0.005369133315980434 -0.011435265652835369" pbc="T T T"
Al       1.59598186       0.90138485       2.55101266        0      -0.85003992      -0.64755160      -0.41676308      -0.33522746       0.74370432      -1.26921284
Al      -0.01311799       1.79082858       4.96769658        1      -0.24557053      -0.74327785       1.65595818      -0.18280207      -0.17026758       1.21499753
N        1.52960408       0.86779352       4.41996340        2       0.16413092       0.60763579       0.63654553       0.31887642       0.39321381      -0.09056872
N       -0.00060094       1.87475190       1.90756519        3       0.93147954       0.78319373      -1.87574068       0.19915317      -0.96665049       0.14478408
4
Lattice="3.128588 0.0 0.0 -1.5642939988088433 2.709436998432005 0.0 0.0 0.0 5.016955" Properties=species:S:1:pos:R:3:spacegroup_kinds:I:1:momenta:R:3:forces:R:3 spacegroup="P 1" unit_cell=conventional occupancy="_JSON {\"0\": {\"Al\": 1}, \"1\": {\"Al\": 1}, \"2\": {\"N\": 1}, \"3\": {\"N\": 1}}" energy=-29.406274795532227 free_energy=-29.406274795532227 stress="0.010688900016248226 0.01649823784828186 -0.008163951337337494 0.01649823784828186 -0.009423108771443367 -0.015553941950201988 -0.008163951337337494 -0.015553941950201988 -0.06125400587916374" pbc="T T T"
Al       1.53423928       0.87298461       2.51007452        0      -1.60925373       0.09619224      -1.03262346       0.74608827       1.00298691       0.03482329
Al      -0.01349005       1.78470222       5.05709166        1       0.21561205      -0.04339766       1.72443282       0.02271176       0.40732962      -1.66436815
N        1.55208976       0.92225132       4.42203507        2       0.38659399       0.63935782      -0.93002920       0.04495849      -0.39009726      -0.56986213
N        0.09667399       1.88681817       1.81230437        3       1.00704770      -0.69215236       0.23821980      -0.81375855      -1.02021921       2.19940686
4
Lattice="3.128588 0.0 0.0 -1.5642939988088433 2.709436998432005 0.0 0.0 0.0 5.016955" Properties=species:S:1:pos:R:3:spacegroup_kinds:I:1:momenta:R:3:forces:R:3 spacegroup="P 1" unit_cell=conventional occupancy="_JSON {\"0\": {\"Al\": 1}, \"1\": {\"Al\": 1}, \"2\": {\"N\": 1}, \"3\": {\"N\": 1}}" energy=-29.201902389526367 free_energy=-29.201902389526367 stress="-0.026441005989909172 0.03815567120909691 -0.03138245642185211 0.03815567120909691 -0.004877477418631315 0.0015437568072229624 -0.03138245642185211 0.0015437568072229624 -0.051819998770952225" pbc="T T T"
Al       1.49382403       0.87740194       2.48150486        0      -0.08661625      -0.02748800       0.25595496       2.48428226      -0.46186951       1.22611606
Al      -0.02076738       1.79337853       5.08843295        1       0.00716731       0.60209074      -1.27068288       0.64723098       0.57433432      -2.36004210
N        1.60157223       0.96971682       4.33361321        2       0.49437272       0.53651010      -0.17473333      -0.53882378      -0.70145339       1.74608994
N        0.13924908       1.81421451       1.89535169        3      -0.41492371      -1.11111280       1.18946124      -2.59268951       0.58898848      -0.61216444
4
Lattice="3.128588 0.0 0.0 -1.5642939988088433 2.709436998432005 0.0 0.0 0.0 5.016955" Properties=species:S:1:pos:R:3:spacegroup_kinds:I:1:momenta:R:3:forces:R:3 spacegroup="P 1" unit_cell=conventional occupancy="_JSON {\"0\": {\"Al\": 1}, \"1\": {\"Al\": 1}, \"2\": {\"N\": 1}, \"3\": {\"N\": 1}}" energy=-29.57462501525879 free_energy=-29.57462501525879 stress="-0.02361799217760563 -0.014321427792310715 -0.011127966456115246 -0.014321427792310715 0.015030165202915668 -0.0028545984532684088 -0.011127966456115246 -0.0028545984532684088 -0.014440283179283142" pbc="T T T"
Al       1.53421963       0.88369271       2.53780579        0       1.55944047       0.36820864       1.55971063       0.29264256      -0.24000591      -0.91367763
Al      -0.00048008       1.82107764       4.98837342        1       1.01688597       0.86374264      -2.47525498       0.94369543       0.52251709       0.78486598
N        1.63583965       0.96584648       4.40663186        2      -0.31021933      -0.52489280       1.27117391      -1.15103805      -0.78907365       0.05687844
N       -0.01177520       1.75252282       1.90648734        3      -2.26610709      -0.70705846      -0.35562961      -0.08529997       0.50656247       0.07193315
4
Lattice="3.128588 0.0 0.0 -1.5642939988088433 2.709436998432005 0.0 0.0 0.0 5.016955" Properties=species:S:1:pos:R:3:spacegroup_kinds:I:1:momenta:R:3:forces:R:3 spacegroup="P 1" unit_cell=conventional occupancy="_JSON {\"0\": {\"Al\": 1}, \"1\": {\"Al\": 1}, \"2\": {\"N\": 1}, \"3\": {\"N\": 1}}" energy=-29.3720703125 free_energy=-29.3720703125 stress="-0.005629819352179766 -0.018719350919127464 0.015849512070417404 -0.018719350919127464 -0.032272640615701675 0.01721211150288582 0.015849512070417404 0.01721211150288582 -0.007298076990991831" pbc="T T T"
Al       1.57072836       0.88046442       2.56331974        0      -0.00039257      -0.37629546      -0.57844043      -1.34386444      -0.44065878      -1.50707686
Al       0.05055072       1.86456078       4.94968569        1       0.52727050       0.77034122       1.04960217      -0.49129122      -1.36432946       1.82584667
N        1.58204796       0.88176661       4.44992392        2      -0.27832262      -1.02263364      -0.55459290       0.15003827       1.16375291      -0.85894728
N       -0.12661084       1.75915460       1.88869868        3      -0.24855527       0.62858789       0.08343109       1.68511772       0.64123511       0.54017764
4
Lattice="3.128588 0.0 0.0 -1.5642939988088433 2.709436998432005 0.0 0.0 0.0 5.016955" Properties=species:S:1:pos:R:3:spacegroup_kinds:I:1:momenta:R:3:forces:R:3 spacegroup="P 1" unit_cell=conventional occupancy="_JSON {\"0\": {\"Al\": 1}, \"1\": {\"Al\": 1}, \"2\": {\"N\": 1}, \"3\": {\"N\": 1}}" energy=-29.596923828125 free_energy=-29.596923828125 stress="0.01597643829882145 -0.004506050609052181 0.006018661893904209 -0.004506050609052181 -0.025499466806650162 -0.004597114399075508 0.006018661893904209 -0.004597114399075508 -0.010013940744102001" pbc="T T T"
Al       1.53284808       0.86390066       2.51395077        0      -1.59464544      -0.16469612      -1.74991300      -0.27820808       0.89916015      -0.15420565
Al       0.06317843       1.83227863       5.00948379        1       0.38440011      -1.80666619       1.59449909      -0.58708441      -0.41271797       0.16725059
N        1.58572475       0.89623787       4.41422577        2       0.14193210       1.12964932      -0.09119142       0.25704095       0.38076788       0.00228158
N       -0.08152107       1.83862426       1.90381443        3       1.06831323       0.84171304       0.24660522       0.60825139      -0.86721009      -0.01532636
4
Lattice="3.128588 0.0 0.0 -1.5642939988088433 2.709436998432005 0.0 0.0 0.0 5.016955" Properties=species:S:1:pos:R:3:spacegroup_kinds:I:1:momenta:R:3:forces:R:3 spacegroup="P 1" unit_cell=conventional occupancy="_JSON {\"0\": {\"Al\": 1}, \"1\": {\"Al\": 1}, \"2\": {\"N\": 1}, \"3\": {\"N\": 1}}" energy=-29.462553024291992 free_energy=-29.462553024291992 stress="-0.0056970492005348206 0.01084944885224104 -0.0039065685123205185 0.01084944885224104 -0.01913381926715374 -0.01270323060452938 -0.0039065685123205185 -0.01270323060452938 -0.01187121868133545" pbc="T T T"
Al       1.48347330       0.88264399       2.44527933        0      -0.30454550       1.01149569      -0.60004487       0.88393021       0.95768392       1.70776439
Al       0.06164410       1.77681257       5.07306068        1      -0.86715284      -0.75617414       0.43048874      -0.30080736       0.71655440      -1.72279751
N        1.61717713       0.94947184       4.40498428        2       0.38645910       0.04830096       0.18623290      -0.07233848      -0.67486143       0.48910877
N       -0.01486933       1.85626149       1.92266696        3       0.78523923      -0.30362245      -0.01667695      -0.51078451      -0.99937677      -0.47407544
4
Lattice="3.128588 0.0 0.0 -1.5642939988088433 2.709436998432005 0.0 0.0 0.0 5.016955" Properties=species:S:1:pos:R:3:spacegroup_kinds:I:1:momenta:R:3:forces:R:3 spacegroup="P 1" unit_cell=conventional occupancy="_JSON {\"0\": {\"Al\": 1}, \"1\": {\"Al\": 1}, \"2\": {\"N\": 1}, \"3\": {\"N\": 1}}" energy=-29.518747329711914 free_energy=-29.518747329711914 stress="-0.023370858281850815 0.006540009286254644 -0.016098283231258392 0.006540009286254644 0.0066972714848816395 -0.0004823631898034364 -0.016098283231258392 -0.0004823631898034364 -0.022161228582262993" pbc="T T T"
Al       1.50607636       0.94974324       2.46463698        0       1.15921293       0.62635208       1.50689832       1.24247408      -0.60704637       1.15697527
Al       0.01335470       1.75088037       5.06242872        1      -0.91111965       0.14825257      -0.88962525       0.51474684       0.69610560      -1.43088984
N        1.62637963       0.90489619       4.42127853        2      -0.14223571      -0.64065053       0.21498287      -0.71771866      -0.51824147      -0.07984912
N        0.02538011       1.82158365       1.88963024        3      -0.10585754      -0.13395406      -0.83225612      -1.03950238       0.42918205       0.35376382
4
Lattice="3.128588 0.0 0.0 -1.5642939988088433 2.709436998432005 0.0 0.0 0.0 5.016955" Properties=species:S:1:pos:R:3:spacegroup_kinds:I:1:momenta:R:3:forces:R:3 spacegroup="P 1" unit_cell=conventional occupancy="_JSON {\"0\": {\"Al\": 1}, \"1\": {\"Al\": 1}, \"2\": {\"N\": 1}, \"3\": {\"N\": 1}}" energy=-29.605010986328125 free_energy=-29.605010986328125 stress="0.0015960687305778265 -0.006785832345485687 -0.0030953397508710623 -0.006785832345485687 0.0017807389376685023 0.001724531059153378 -0.0030953397508710623 0.001724531059153378 -0.02311498485505581" pbc="T T T"
Al       1.56693923       0.93861034       2.54470908        0       1.44875362      -0.98943847       1.48437308      -0.01659333      -0.29131469      -1.20299661
Al      -0.01304567       1.78057344       4.99752455        1       0.01689850       1.11024974      -1.70729940       0.38438731       0.02358327       0.50759399
N        1.58384203       0.87104968       4.42155567        2      -0.67927530      -0.02704948      -0.19037108      -0.39236906       0.15177874      -0.39792579
N        0.00122213       1.81989282       1.85992052        3      -0.78637677      -0.09376174       0.41329731       0.02457510       0.11595276       1.09332824
4
Lattice="3.128588 0.0 0.0 -1.5642939988088433 2.709436998432005 0.0 0.0 0.0 5.016955" Properties=species:S:1:pos:R:3:spacegroup_kinds:I:1:momenta:R:3:forces:R:3 spacegroup="P 1" unit_cell=conventional occupancy="_JSON {\"0\": {\"Al\": 1}, \"1\": {\"Al\": 1}, \"2\": {\"N\": 1}, \"3\": {\"N\": 1}}" energy=-29.47020721435547 free_energy=-29.47020721435547 stress="0.0032028453424572945 -0.01780136488378048 0.011838461272418499 -0.01780136488378048 -0.04134894162416458 0.007359894923865795 0.011838461272418499 0.007359894923865795 -0.005160239525139332" pbc="T T T"
Al       1.62755628       0.89950081       2.54516747        0       1.04970811      -0.99981897      -0.80202948      -1.41065240       0.15933123      -0.91778946
Al      -0.00757054       1.81703570       4.95606289        1      -0.03758019       0.11959852      -0.16512780      -0.26242864      -0.84351909       1.41445696
N        1.52756230       0.85151202       4.42065483        2      -0.42752167       0.29023069      -0.07965724       0.31766218       0.98894966      -0.00115301
N       -0.06966667       1.84442116       1.93994531        3      -0.58460624       0.58998980       1.04681451       1.35541880      -0.30476165      -0.49551427
4
Lattice="3.128588 0.0 0.0 -1.5642939988088433 2.709436998432005 0.0 0.0 0.0 5.016955" Properties=species:S:1:pos:R:3:spacegroup_kinds:I:1:momenta:R:3:forces:R:3 spacegroup="P 1" unit_cell=conventional occupancy="_JSON {\"0\": {\"Al\": 1}, \"1\": {\"Al\": 1}, \"2\": {\"N\": 1}, \"3\": {\"N\": 1}}" energy=-29.452987670898438 free_energy=-29.452987670898438 stress="-0.01322503574192524 -0.023749999701976776 0.007911506108939648 -0.023749999701976776 -0.047931816428899765 -0.007333284243941307 0.007911506108939648 -0.007333284243941307 0.028633033856749535" pbc="T T T"
Al       1.63184039       0.85684031       2.46693546        0      -0.97589085      -0.55899559      -1.34838308      -1.39009953       1.11026216       1.17304015
Al      -0.02377744       1.82170279       4.98999600        1      -0.28018885       0.45883541       1.28013431      -0.08532406       0.08283230       0.34696874
N        1.52792699       0.92957749       4.44479005        2       0.11446524       0.97873237       0.08012576       0.22035992      -0.17398492       0.05598994
N       -0.04718869       1.83921505       2.00086007        3       1.14161449      -0.87857214      -0.01187695       1.25506389      -1.01910973      -1.57599902
4
Lattice="3.128588 0.0 0.0 -1.5642939988088433 2.709436998432005 0.0 0.0 0.0 5.016955" Properties=species:S:1:pos:R:3:spacegroup_kinds:I:1:momenta:R:3:forces:R:3 spacegroup="P 1" unit_cell=conventional occupancy="_JSON {\"0\": {\"Al\": 1}, \"1\": {\"Al\": 1}, \"2\": {\"N\": 1}, \"3\": {\"N\": 1}}" energy=-29.53631591796875 free_energy=-29.53631591796875 stress="-0.019857613369822502 0.013828964903950691 -0.005717334803193808 0.013828964903950691 -0.0031641570385545492 -0.0016709913033992052 -0.005717334803193808 -0.0016709913033992052 -0.006260488647967577" pbc="T T T"
Al       1.56291507       0.86348350       2.43836896        0      -1.44558826       0.38889116       0.34075044       0.67285818       0.11609393       1.45909584
Al      -0.01834143       1.83613135       5.05736566        1       0.19731466      -0.00921521       1.04741995       0.06595264       0.15003687      -1.19267297
N        1.54726700       0.95741148       4.47045641        2      -0.01023968       0.05685040       0.14844019       0.09761384      -0.44421014      -0.65174907
N        0.05576969       1.77068664       1.90062729        3       1.25851328      -0.43652631      -1.53661057      -0.83642477       0.17807958       0.38532567
4
Lattice="3.128588 0.0 0.0 -1.5642939988088433 2.709436998432005 0.0 0.0 0.0 5.016955" Properties=species:S:1:pos:R:3:spacegroup_kinds:I:1:momenta:R:3:forces:R:3 spacegroup="P 1" unit_cell=conventional occupancy="_JSON {\"0\": {\"Al\": 1}, \"1\": {\"Al\": 1}, \"2\": {\"N\": 1}, \"3\": {\"N\": 1}}" energy=-29.5310001373291 free_energy=-29.5310001373291 stress="-0.018293848261237144 0.015707604587078094 -0.011607659980654716 0.015707604587078094 0.0031480034813284874 0.004605643451213837 -0.011607659980654716 0.004605643451213837 -0.017258932814002037" pbc="T T T"
Al       1.54701076       0.87273546       2.46070916        0       0.71855778      -0.11584419       0.49435371       1.07476747      -0.28505734       1.06925344
Al      -0.01761629       1.84389394       5.05391113        1       0.19346407       0.17720464      -0.69190139       0.23187554      -0.07941949      -1.16825080
N        1.56395355       0.94331122       4.45961400        2       0.32487439      -0.12409448      -0.51346161      -0.11547014      -0.20503253      -0.72920227
N        0.06831351       1.75176767       1.87546338        3      -1.23689624       0.06273407       0.71100923      -1.19117284       0.56950963       0.82819945
4
Lattice="3.128588 0.0 0.0 -1.5642939988088433 2.709436998432005 0.0 0.0 0.0 5.016955" Properties=species:S:1:pos:R:3:spacegroup_kinds:I:1:momenta:R:3:forces:R:3 spacegroup="P 1" unit_cell=conventional occupancy="_JSON {\"0\": {\"Al\": 1}, \"1\": {\"Al\": 1}, \"2\": {\"N\": 1}, \"3\": {\"N\": 1}}" energy=-29.613210678100586 free_energy=-29.613210678100586 stress="-0.008381569758057594 -0.004276745952665806 0.005492837633937597 -0.004276745952665806 -0.013937070034444332 0.0014804026577621698 0.005492837633937597 0.0014804026577621698 0.012475460767745972" pbc="T T T"
Al       1.57767911       0.87033377       2.48321564        0       0.42145874      -0.10086016       0.75449336      -0.50598717       0.14215471       0.64867640
Al       0.00878681       1.84488742       5.00616575        1       0.94842569       0.04829719      -0.67234545      -0.28191054      -0.37569803       0.05942865
N        1.54733738       0.91884311       4.41695260        2      -0.50233630      -0.06173863      -0.86681734       0.26756737       0.16352615       0.34766516
N       -0.02491944       1.77881444       1.96659664        3      -0.86754814       0.11430164       0.78466936       0.52033031       0.07001727      -1.05577052
4
Lattice="3.128588 0.0 0.0 -1.5642939988088433 2.709436998432005 0.0 0.0 0.0 5.016955" Properties=species:S:1:pos:R:3:spacegroup_kinds:I:1:momenta:R:3:forces:R:3 spacegroup="P 1" unit_cell=conventional occupancy="_JSON {\"0\": {\"Al\": 1}, \"1\": {\"Al\": 1}, \"2\": {\"N\": 1}, \"3\": {\"N\": 1}}" energy=-29.55784034729004 free_energy=-29.55784034729004 stress="-0.016363775357604027 -0.0029474308248609304 0.012903646565973759 -0.0029474308248609304 -0.006207576021552086 0.0015375262591987848 0.012903646565973759 0.0015375262591987848 -0.002714641857892275" pbc="T T T"
Al       1.59068815       0.88023430       2.52274584        0      -0.41625661       0.17887071       0.33160780      -0.90884399      -0.14030780      -0.36867931
Al       0.01872293       1.83477381       4.97781995        1       0.14973991      -0.20763028      -0.17578451      -0.72829831      -0.10046437       0.72652572
N        1.52039167       0.92489994       4.39464368        2       0.19754359       0.25939882       0.47781725       0.72476095      -0.09604894       0.71574187
N       -0.04216863       1.77342025       1.96745697        3       0.06897311      -0.23063920      -0.63364058       0.91238171       0.33682120      -1.07358813
4
Lattice="3.128588 0.0 0.0 -1.5642939988088433 2.709436998432005 0.0 0.0 0.0 5.016955" Properties=species:S:1:pos:R:3:spacegroup_kinds:I:1:momenta:R:3:forces:R:3 spacegroup="P 1" unit_cell=conventional occupancy="_JSON {\"0\": {\"Al\": 1}, \"1\": {\"Al\": 1}, \"2\": {\"N\": 1}, \"3\": {\"N\": 1}}" energy=-29.621112823486328 free_energy=-29.621112823486328 stress="-0.021500758826732635 0.005276424810290337 -0.003267406951636076 0.005276424810290337 0.010657683946192265 0.0019249159377068281 -0.003267406951636076 0.0019249159377068281 -0.0015898485435172915" pbc="T T T"
Al       1.54767649       0.89587763       2.50832857        0      -0.85810004       0.46896506      -1.00003007       0.39160505      -0.39029205      -0.15032756
Al       0.00665804       1.82067518       5.00342496        1      -0.72966962      -0.11082684       1.46536661      -0.00949892       0.22697075       0.34863231
N        1.57185927       0.94293298       4.45440721        2       0.62349901      -0.37686484       0.64593293      -0.01969857      -0.43335336      -0.83890188
N        0.01256037       1.75229419       1.88600530        3       0.96427069       0.01872665      -1.11126945      -0.36240751       0.59667462       0.64059728
4
Lattice="3.128588 0.0 0.0 -1.5642939988088433 2.709436998432005 0.0 0.0 0.0 5.016955" Properties=species:S:1:pos:R:3:spacegroup_kinds:I:1:momenta:R:3:forces:R:3 spacegroup="P 1" unit_cell=conventional occupancy="_JSON {\"0\": {\"Al\": 1}, \"1\": {\"Al\": 1}, \"2\": {\"N\": 1}, \"3\": {\"N\": 1}}" energy=-29.52085304260254 free_energy=-29.52085304260254 stress="-0.014047334901988506 0.011820970103144646 -0.014255596324801445 0.011820970103144646 -0.005614763125777245 0.00936147104948759 -0.014255596324801445 0.00936147104948759 -0.01957101747393608" pbc="T T T"
Al       1.52999429       0.91403916       2.46474570        0       0.09545110      -0.23101257      -1.18071392       1.21875179      -0.63576931       0.99290001
Al      -0.00890653       1.82180734       5.05208964        1       0.31216896      -0.10747520       0.45537691       0.39472890      -0.38378587      -1.12710190
N        1.59437712       0.88605557       4.45928988        2      -0.04798973      -0.53350285      -0.20523328      -0.40810692       0.35579014      -0.79021811
N        0.05384448       1.77207219       1.87144998        3      -0.35963030       0.87199066       0.93057030      -1.20537400       0.66376472       0.92442012
4
Lattice="3.128588 0.0 0.0 -1.5642939988088433 2.709436998432005 0.0 0.0 0.0 5.016955" Properties=species:S:1:pos:R:3:spacegroup_kinds:I:1:momenta:R:3:forces:R:3 spacegroup="P 1" unit_cell=conventional occupancy="_JSON {\"0\": {\"Al\": 1}, \"1\": {\"Al\": 1}, \"2\": {\"N\": 1}, \"3\": {\"N\": 1}}" energy=-29.61878776550293 free_energy=-29.61878776550293 stress="0.010117783211171627 -0.0018219784833490849 -0.0018729802686721087 -0.0018219784833490849 -0.024783074855804443 0.0045911273919045925 -0.0018729802686721087 0.0045911273919045925 2.6537187295616604e-05" pbc="T T T"
Al       1.53818033       0.90928017       2.47247629        0       0.23228530      -0.27447249       1.41733360       0.21201307       0.18702509       0.85530806
Al       0.01802692       1.81430743       5.03506513        1       0.60360857      -0.42930270      -1.11140745       0.03759992      -0.69444251      -0.55142522
N        1.59518017       0.85128051       4.42414644        2       0.09084603       0.02420670      -0.77345525      -0.19470128       0.84070647       0.01228204
N       -0.01452986       1.83034439       1.92467361        3      -0.92673992       0.67956851       0.46752915      -0.05491168      -0.33328903      -0.31616446
4
Lattice="3.128588 0.0 0.0 -1.5642939988088433 2.709436998432005 0.0 0.0 0.0 5.016955" Properties=species:S:1:pos:R:3:spacegroup_kinds:I:1:momenta:R:3:forces:R:3 spacegroup="P 1" unit_cell=conventional occupancy="_JSON {\"0\": {\"Al\": 1}, \"1\": {\"Al\": 1}, \"2\": {\"N\": 1}, \"3\": {\"N\": 1}}" energy=-29.623741149902344 free_energy=-29.623741149902344 stress="0.004300450906157494 -0.008672687225043774 0.0028819553554058075 -0.008672687225043774 -0.0069435290060937405 -0.004434466361999512 0.0028819553554058075 -0.004434466361999512 -0.01483919844031334" pbc="T T T"
Al       1.54321203       0.89379625       2.53645984        0      -0.00705475      -0.41529097       0.79444997      -0.25250286       0.39302737      -0.87834477
Al       0.03580902       1.79893954       4.98957805        1       0.09337999      -0.29525055      -0.61191897      -0.16600797       0.14057970       0.62745064
N        1.59619759       0.90645094       4.40111844        2      -0.02189872       1.09350593       0.27120796      -0.08900174      -0.09593634       0.34911230
N       -0.05911262       1.83464209       1.91219260        3      -0.06442652      -0.38296442      -0.45373895       0.50751257      -0.43767071      -0.09821855
