56
Lattice="10.7619164 0.0 0.0 -9.665296305262016 4.732958053065482 0.0 -0.5483100463354086 -2.3664790220718444 10.484177494289693" Properties=species:S:1:pos:R:3:spacegroup_kinds:I:1:momenta:R:3:forces:R:3 spacegroup="P 1" unit_cell=conventional occupancy="_JSON {\"0\": {\"H\": 1}, \"1\": {\"H\": 1}, \"2\": {\"H\": 1}, \"3\": {\"H\": 1}, \"4\": {\"H\": 1}, \"5\": {\"H\": 1}, \"6\": {\"H\": 1}, \"7\": {\"H\": 1}, \"8\": {\"H\": 1}, \"9\": {\"H\": 1}, \"10\": {\"H\": 1}, \"11\": {\"H\": 1}, \"12\": {\"H\": 1}, \"13\": {\"H\": 1}, \"14\": {\"H\": 1}, \"15\": {\"H\": 1}, \"16\": {\"H\": 1}, \"17\": {\"H\": 1}, \"18\": {\"H\": 1}, \"19\": {\"H\": 1}, \"20\": {\"H\": 1}, \"21\": {\"H\": 1}, \"22\": {\"H\": 1}, \"23\": {\"H\": 1}, \"24\": {\"H\": 1}, \"25\": {\"H\": 1}, \"26\": {\"H\": 1}, \"27\": {\"H\": 1}, \"28\": {\"H\": 1}, \"29\": {\"H\": 1}, \"30\": {\"H\": 1}, \"31\": {\"H\": 1}, \"32\": {\"C\": 1}, \"33\": {\"C\": 1}, \"34\": {\"C\": 1}, \"35\": {\"C\": 1}, \"36\": {\"C\": 1}, \"37\": {\"C\": 1}, \"38\": {\"C\": 1}, \"39\": {\"C\": 1}, \"40\": {\"C\": 1}, \"41\": {\"C\": 1}, \"42\": {\"C\": 1}, \"43\": {\"C\": 1}, \"44\": {\"C\": 1}, \"45\": {\"C\": 1}, \"46\": {\"C\": 1}, \"47\": {\"C\": 1}, \"48\": {\"O\": 1}, \"49\": {\"O\": 1}, \"50\": {\"O\": 1}, \"51\": {\"O\": 1}, \"52\": {\"O\": 1}, \"53\": {\"O\": 1}, \"54\": {\"O\": 1}, \"55\": {\"O\": 1}}" energy=-313.621826171875 free_energy=-313.621826171875 stress="-0.006905337329953909 -0.0013853362761437893 -0.004504659213125706 -0.0013853362761437893 0.00943929236382246 0.005599959287792444 -0.004504659213125706 0.005599959287792444 0.01340706180781126" pbc="T T T"
H        0.49738841       1.84331523       1.77824735        0      -0.10613624      -0.09781680       0.11564562      -0.18202248       0.31332421       0.59539574
H        0.10556090      -0.11663749       8.27653504        1       0.04015895      -0.13169643       0.14437781      -0.36897731      -0.78898227       0.22590762
H        6.62289109      -0.91207541       5.20265677        2      -0.16864423       0.10450079      -0.19164024       0.98594910      -0.03108446       0.77322590
H        3.36922894       0.56254899       5.08036106        3       0.12068357      -0.12390882       0.11664078      -0.39409211      -0.59535170      -0.23536965
H        5.95301262       0.59228807       3.38812117        4       0.14110945      -0.33747340      -0.07871796      -0.93089336      -0.50390476       0.87666214
H        5.01744006       0.42520645       7.32442016        5      -0.23162758       0.06489372      -0.14197775      -0.38864493      -1.26105654      -0.47847986
H       -1.57731824       0.54128585      10.53958368        6      -0.12407198      -0.08816746      -0.07763759      -0.37742853      -0.46800941       0.30721277
H        2.69863473       2.00433406       0.26116707        7      -0.05404085       0.01557126      -0.10225857      -0.72495216      -0.67533028      -0.86530638
H       -1.22304012       1.63674022       1.75940534        8      -0.05424872       0.24253116      -0.13897863      -0.49740916      -0.09367592       0.10530607
H       -8.93359088       2.96970972       8.47514814        9      -0.06042168      -0.12559469      -0.10762002       0.36619413      -0.63050574       0.55256408
H       -2.26849151       4.25936920       6.83350113       10       0.20578940       0.12214667       0.33238151      -0.06949995      -0.47618836      -0.34377763
H       -6.68836102       4.95609496       3.39407511       11      -0.06212358       0.10325998      -0.15892823       0.13254333      -0.56484526       0.15242592
H       -3.12925550       0.32645836       3.01954341       12       0.09286646       0.17897842      -0.00989659       0.31408501       0.11225905       0.01380506
H       -6.80751051       1.79512304       7.74588608       13       0.11313704      -0.05419656      -0.04504029      -2.35594034       0.59494776      -0.52509815
H       -1.67751146       0.97559905       8.80862491       14       0.00516046      -0.30016337      -0.16851297      -0.66054082       0.17536813       0.81923497
H       -7.85157872       2.25969152       2.02092902       15       0.06193675       0.16966541       0.04109018       0.45021832       0.30493605      -0.97372913
H       -1.03679247       0.54726102       4.10971811       16       0.09384615       0.18126155      -0.07858787       0.29053921       0.47455725       0.73892766
H        1.41496385       2.60741906       5.94194793       17       0.17914703       0.16208154      -0.08142671       0.04019923      -0.18983391       0.67822433
H       -0.64058357       2.00872456       6.06364849       18      -0.05634321       0.12337216       0.04032535      -0.53551280       0.51595694      -0.09275831
H        0.85977762      -0.92446411       4.06230122       19       0.08226773       0.01615505       0.13954113      -0.43777761      -0.05474792       0.42652515
H        7.07832351       1.52716351       0.77918368       20       0.03745964       0.06298944      -0.11847582      -0.51151770      -0.36470002      -0.19009568
H       -5.65481878       2.28567739       9.73114997       21       0.07723489       0.36926315      -0.07796298       0.09997881      -0.39057612       0.05156374
H        6.08095736      -2.02800082       9.57309379       22       0.04996191       0.13992319      -0.04251305       0.10452053      -0.44056538      -0.00563068
H       -5.39307794       3.26285532       1.28813557       23      -0.08191984      -0.05415665       0.26987024      -0.86360759      -0.75486350      -0.77635640
H       -0.07299400       0.27971674       1.81917015       24       0.13898017       0.34269275       0.14181164      -0.42564499      -0.34436205       0.62045419
H       -1.06700016      -1.51564039       8.21163891       25      -0.20145765       0.01373092       0.07616500      -0.17210944      -0.24384972       0.51164979
H       -2.96209865       2.60530222       6.43440282       26       0.06315630      -0.07175107      -0.16381538       0.16209550       0.09858214       0.31126744
H       -6.35719984       3.51669273       4.57538962       27       0.16449759       0.18567732       0.02440259      -0.60311288       1.40275717      -0.34498987
H       -3.82677205       2.00991152       3.18430516       28       0.08980658      -0.11710458      -0.00472080       0.23108341       0.02059557      -0.20068787
H       -5.17636461       2.03285248       7.19923465       29       0.10905394      -0.18779664       0.15105890      -0.36808169      -0.23564924       0.74254036
H       -0.79357742       4.53174458      -0.43569508       30      -0.12628140      -0.10201739      -0.01900680      -0.09976380       0.06219536       0.11299641
H        2.31575731       1.30675600      11.36317813       31       0.12164145       0.07458468      -0.08519207       0.08103508      -0.48911345      -0.09376644
C       -0.37163610       1.38708492       3.80590661       32       0.82677590       0.29513682       0.09766145       0.43048579      -0.84296137      -2.02711892
C        0.11847911      -1.18778291       6.49983774       33      -0.62840292      -0.18737005      -0.14628291      -0.37041521       0.27214611      -0.96543616
C       -0.97555881       2.96185323       5.57576499       34      -0.36449121      -1.07571529       0.20948566       0.37154582       0.17796497       0.59155810
C        1.35011586      -0.15700502       4.68315338       35      -0.02227954       0.95830893       0.13073134       0.73834169       1.50494480       0.40339658
C        6.36784101       0.86650845       1.33870129       36       0.30590190       0.88519325       1.28776867       1.97926092      -0.30296230       0.89317524
C       -5.53677819       1.29363391       9.24627686       37       0.27688701      -0.37684356       0.66636840      -0.66259193      -0.77057445       0.58604443
C       -3.39932673       1.69730068      10.02118768       38      -0.84111633      -0.44256927       0.59809766       0.37920326       0.55000085       0.65976143
C        4.71880456       2.50518200       0.70336295       39       0.38984822       0.88224580      -0.51305266      -0.59657943       1.44276786       0.49371484
C       -0.32683938       1.26219653       2.24609231       40      -0.63948273       0.50546223       0.23424365       0.77351707       0.79702157      -0.39457184
C       -0.05210455      -1.19852064       8.01058145       41       0.11582438      -0.65736837      -0.92747932       0.85172272       1.37443507      -1.02296925
C       -2.37909937       3.46525767       6.06278716       42      -0.05353449       0.08466955      -0.15003005      -0.40584639      -0.60533381      -1.67188585
C        2.83806354      -0.17358519       4.41939550       43       0.55230097       0.76816296      -0.43150131       1.06823194      -0.67910630       0.54370642
C        6.77902031       0.98017854       2.84378908       44      -1.12306792      -0.45029174       0.26639676      -0.51443505       0.02888904      -1.28141356
C       -5.86817693       1.36776529       7.79427936       45      -0.98979835      -0.05587729      -0.83441602       2.87887049       1.13958526      -0.55467230
C       -1.97699404       1.28319929       9.85895626       46       0.40697066      -0.18668123       0.33790621       1.72741663       0.51333517      -1.56748724
C        3.19008772       2.61285403       0.97606096       47       0.25747461       0.90121147      -0.18333193       1.07155955       1.22871530       1.82997203
O       -0.85758715       2.66103189       4.11713037       48       0.61684477      -0.37118714       1.25663810      -0.17584904       0.40347105       1.06924856
O        1.08909376      -0.23997545       6.12862843       49      -0.39618543      -0.37804508      -0.11483545       0.12260374      -0.37597364      -0.82797551
O       -1.16050474      -0.72093719       5.97406337       50      -0.34983926      -1.05740083      -0.27246595      -0.47367063      -0.41497999      -0.96765304
O        1.00795477       1.19208943       4.24044431       51      -0.03057000       0.15482596      -1.24559189      -1.03327107      -0.52625394       0.63129401
O       -3.10184432       4.20162623       0.97719066       52      -0.29226479       0.28802389      -0.94690536      -0.31202143       1.32850623      -0.04798311
O        4.30825705       0.33413969       9.75623661       53       0.02704334      -1.15722664      -0.33727236      -0.25940758       0.04012902       0.50475860
O       -4.24389646       0.74756649       9.49746214       54       0.41595308      -0.82784341       0.02625863       0.13963962       0.06729914      -0.42571276
O        5.02961348       1.21054931       1.07684141       55       0.87862950       0.61974387       1.29120808      -0.01922381      -0.82934892       0.05840610
