56
Lattice="10.7619164 0.0 0.0 -9.665296305262016 4.732958053065482 0.0 -0.5483100463354086 -2.3664790220718444 10.484177494289693" Properties=species:S:1:pos:R:3:spacegroup_kinds:I:1:momenta:R:3:forces:R:3 spacegroup="P 1" unit_cell=conventional occupancy="_JSON {\"0\": {\"H\": 1}, \"1\": {\"H\": 1}, \"2\": {\"H\": 1}, \"3\": {\"H\": 1}, \"4\": {\"H\": 1}, \"5\": {\"H\": 1}, \"6\": {\"H\": 1}, \"7\": {\"H\": 1}, \"8\": {\"H\": 1}, \"9\": {\"H\": 1}, \"10\": {\"H\": 1}, \"11\": {\"H\": 1}, \"12\": {\"H\": 1}, \"13\": {\"H\": 1}, \"14\": {\"H\": 1}, \"15\": {\"H\": 1}, \"16\": {\"H\": 1}, \"17\": {\"H\": 1}, \"18\": {\"H\": 1}, \"19\": {\"H\": 1}, \"20\": {\"H\": 1}, \"21\": {\"H\": 1}, \"22\": {\"H\": 1}, \"23\": {\"H\": 1}, \"24\": {\"H\": 1}, \"25\": {\"H\": 1}, \"26\": {\"H\": 1}, \"27\": {\"H\": 1}, \"28\": {\"H\": 1}, \"29\": {\"H\": 1}, \"30\": {\"H\": 1}, \"31\": {\"H\": 1}, \"32\": {\"C\": 1}, \"33\": {\"C\": 1}, \"34\": {\"C\": 1}, \"35\": {\"C\": 1}, \"36\": {\"C\": 1}, \"37\": {\"C\": 1}, \"38\": {\"C\": 1}, \"39\": {\"C\": 1}, \"40\": {\"C\": 1}, \"41\": {\"C\": 1}, \"42\": {\"C\": 1}, \"43\": {\"C\": 1}, \"44\": {\"C\": 1}, \"45\": {\"C\": 1}, \"46\": {\"C\": 1}, \"47\": {\"C\": 1}, \"48\": {\"O\": 1}, \"49\": {\"O\": 1}, \"50\": {\"O\": 1}, \"51\": {\"O\": 1}, \"52\": {\"O\": 1}, \"53\": {\"O\": 1}, \"54\": {\"O\": 1}, \"55\": {\"O\": 1}}" energy=-315.20623779296875 free_energy=-315.20623779296875 stress="0.0015259676147252321 -0.0007349737570621073 -5.840825565428531e-07 -0.0007349737570621073 -0.0014768238179385662 6.523910656142107e-08 -5.840825565428531e-07 6.523910656142107e-08 0.0016979894135147333" pbc="T T T"
H       -0.01248427       2.27696696       1.83153339        0       0.26354636       0.05758816       0.17128558       0.07122687       0.02707755       0.05251677
H        0.46428407      -0.32702137       8.65264411        1       0.35723632       0.30052336      -0.15421514      -0.05205543       0.05564445      -0.05251540
H        7.11696904      -0.62167877       5.76820574        2       0.13651140      -0.03657588      -0.02448058       0.06071824       0.02959748      -0.06332436
H        3.54843712       0.20514534       4.71597175        3       0.04495575       0.01373704       0.24194406      -0.04159813       0.05318744       0.06330243
H        5.94175252       0.08951207       3.41055536        4       0.10004105       0.00919574       0.06893732      -0.07122654      -0.02707710      -0.05251747
H        4.91667413       0.32702137       7.07362213        5       0.03762731       0.23702154      -0.03633186       0.05205800      -0.05563770       0.05251891
H       -1.73601084       0.62167878       9.95806050        6       0.04090260      -0.15000140      -0.41043770      -0.06071929      -0.02958668       0.06332384
H        2.38083113       2.16133369       0.52611700        7       0.07639930       0.13373956      -0.11953039       0.04159745      -0.05318592      -0.06330097
H       -1.38564785       1.18011340       2.11584331        8       0.34764813      -0.24942510       0.01968671       0.00912188       0.09641416       0.00989613
H       -8.45014457       2.81694541       8.36833418        9      -0.04487542       0.24826795       0.27191556       0.03391340       0.09078121      -0.00994025
H       -2.58250803       2.70418269       6.85836100       10       0.00836639       0.05472545      -0.13232917       0.03144334       0.09145366       0.01228179
H       -6.70499477       3.65935988       3.62581649       11      -0.35280026      -0.06406840       0.05024236       0.01202217       0.09588329      -0.01239189
H       -3.44700030       1.18636563       3.12624543       12       0.17759995       0.19181929      -0.04741865      -0.00912232      -0.09641391      -0.00989518
H       -6.59610993       1.91601265       7.35793206       13      -0.06659844      -0.18039638      -0.21144164      -0.03391636      -0.09078076       0.00994106
H       -1.70183007       2.02877537       8.86790524       14      -0.29590695       0.31510437      -0.07166042      -0.03144043      -0.09144852      -0.01229334
H       -7.79294969       3.44007720       1.61627226       15      -0.10166361      -0.21365327       0.15571300      -0.01202433      -0.09588432       0.01238962
H       -0.77544238       0.72057867       4.36236141       16      -0.29135246      -0.04383699      -0.13778795      -0.05580220      -0.06497575       0.06553181
H        1.56164860       2.67260202       6.12181608       17       0.04513471      -0.09416448      -0.19034861       0.02151170      -0.08285759      -0.06550469
H       -0.46393564       1.89516633       6.16016720       18      -0.02388752       0.06229365       0.02104621       0.04679152      -0.08891350       0.03981792
H        0.70181139      -0.86845994       4.32401029       19       0.02574107      -0.11427781      -0.05287528      -0.08095911      -0.05914012      -0.03975113
H        6.70471062       1.64590036       0.87972733       20      -0.14286290      -0.07079985      -0.14118650       0.05580552       0.06498120      -0.06553402
H       -5.84598670       2.06035604       9.60445016       21      -0.29753233       0.02254640      -0.04431235      -0.02151364       0.08285381       0.06550375
H        5.84489385      -1.89516633       9.56609904       22      -0.28312851       0.06560536      -0.15494221      -0.04679289       0.08891536      -0.03981609
H       -5.53445954       3.23493897       0.91807845       23      -0.02208037       0.11416853       0.04301970       0.08095698       0.05914027       0.03974709
H        0.25131050       0.51347389       1.94957474       24       0.15959789      -0.21361364       0.07505588      -0.00851110      -0.01871594      -0.03717793
H       -0.54820374      -1.79480395       8.53460275       25      -0.12868866      -0.15316038      -0.08588331      -0.00032948      -0.02044828       0.03709345
H       -2.80766320       2.46899490       5.11315433       26      -0.07305533       0.00146869      -0.17781296      -0.04083828      -0.01125236       0.00405171
H       -6.60619587       3.34910738       5.37102316       27       0.12888264       0.07074453      -0.23064715       0.03167361      -0.02802480      -0.00411326
H       -5.08395866       1.85300514       3.29251401       28       0.22099581       0.30740365       0.21601993       0.00851503       0.01871284       0.03717751
H       -4.83275446       1.79480396       7.19166349       29      -0.04673026      -0.18471461       0.19482948       0.00034749       0.02045770      -0.03709854
H       -0.92836486       4.63044218       0.12893441       30      -0.09883902       0.19431951       0.04569436       0.04083335       0.01124324      -0.00406422
H        2.32185777       1.38385068      10.35524308       31       0.15211596       0.04921952       0.12080102      -0.03167574       0.02802730       0.00411087
C       -0.12835063       1.44534837       3.84841655       32      -0.28778073       0.91754073       0.18270710      -0.01445484       0.09213230      -0.08206722
C        0.20260826      -1.12485611       6.63576095       33       0.00096406       0.97078231      -0.67128192       0.05361568       0.07627261       0.08205748
C       -0.77226604       2.84130358       5.69336968       34      -0.96473690       0.45234422      -0.54337998      -0.06051254       0.10292950       0.03487972
C        1.39483372      -0.15433229       4.79080781       35       0.83737779      -0.34833687      -0.35976593       0.09947327       0.06571019      -0.03489188
C        6.05761888       0.92113066       1.39367220       36       0.73780001       0.71679960       1.01054651       0.01444720      -0.09213756       0.08206934
C       -5.58356646       1.12485611       9.09050530       37       0.36600935      -0.57579551       1.35161317      -0.05360273      -0.07626295      -0.08206052
C       -3.51207206       1.89165448      10.03289656       38      -0.27702103       0.36712178       0.74445208       0.06052458      -0.10293416      -0.03488912
C        4.53443453       2.52081132       0.45128094       39      -0.47025582       0.22782501       0.51146167      -0.09947118      -0.06571996       0.03490283
C       -0.32593927       1.35886302       2.34265801       40      -0.11966996      -0.73251108       0.28611321      -0.02487606      -0.04884084       0.03836663
C        0.34202778      -1.28942579       8.14151949       41       0.57030904      -0.50578053       0.01064034       0.00090399      -0.05509168      -0.03820979
C       -2.26824862       3.05565688       5.86632716       42      -0.48098077       0.96238649       0.55365818       0.02524401      -0.06073731       0.01393194
C        2.83264719      -0.61974062       4.61785033       43      -0.04860277      -0.55844948       0.33742963      -0.04931978      -0.04330876      -0.01374464
C        6.25520752       1.00761601       2.89943074       44      -0.70747446      -0.11378709      -0.42767829       0.02487230       0.04884344      -0.03836605
C       -5.72298598       1.28942580       7.58474676       45       0.19434055       0.24831833       0.14297097      -0.00092386       0.05507532       0.03821231
C       -2.01608948       1.67730118       9.85993908       46       0.09740524      -0.72425149      -0.69205550      -0.02525459       0.06073096      -0.01389948
C        3.09662106       2.98621965       0.62423841       47      -0.12331172      -0.02208015       0.38636924       0.04932646       0.04330599       0.01374363
O       -0.42625656       2.75924355       4.28180099       48       1.20625674       0.48604619      -0.44497158       0.00567042      -0.06416634       0.01081656
O        1.04798334      -0.07585512       6.20237650       49       0.42305791      -1.01659881      -0.20166176      -0.03317403      -0.05508551      -0.01086389
O       -1.17294689      -0.80803189       6.28015861       50      -0.36133290       0.99731317      -0.30860065      -0.00324892      -0.06212863      -0.01994161
O        1.24638404       1.12493657       4.20401888       51      -0.92624698      -0.21254257      -0.34164539      -0.02462108      -0.05716430       0.01989342
O       -3.30977150       4.34019353       0.96028775       52       0.26500009      -0.83301049      -0.49473951      -0.00567067       0.06416543      -0.01082128
O        4.33297486       0.07585512       9.52388974       53      -0.48283211      -0.49689578       1.25894465       0.03316791       0.05508552       0.01086740
O       -4.20801131       0.80803190       9.44610763       54       0.43498781      -0.06064940      -0.51538975       0.00324861       0.06213067       0.01994637
O        4.68288421       1.24154246       1.03806987       55       0.06343698      -0.82659266      -1.04828579       0.02462512       0.05716883      -0.01989805
56
Lattice="10.7619164 0.0 0.0 -9.665296305262016 4.732958053065482 0.0 -0.5483100463354086 -2.3664790220718444 10.484177494289693" Properties=species:S:1:pos:R:3:spacegroup_kinds:I:1:momenta:R:3:forces:R:3 spacegroup="P 1" unit_cell=conventional occupancy="_JSON {\"0\": {\"H\": 1}, \"1\": {\"H\": 1}, \"2\": {\"H\": 1}, \"3\": {\"H\": 1}, \"4\": {\"H\": 1}, \"5\": {\"H\": 1}, \"6\": {\"H\": 1}, \"7\": {\"H\": 1}, \"8\": {\"H\": 1}, \"9\": {\"H\": 1}, \"10\": {\"H\": 1}, \"11\": {\"H\": 1}, \"12\": {\"H\": 1}, \"13\": {\"H\": 1}, \"14\": {\"H\": 1}, \"15\": {\"H\": 1}, \"16\": {\"H\": 1}, \"17\": {\"H\": 1}, \"18\": {\"H\": 1}, \"19\": {\"H\": 1}, \"20\": {\"H\": 1}, \"21\": {\"H\": 1}, \"22\": {\"H\": 1}, \"23\": {\"H\": 1}, \"24\": {\"H\": 1}, \"25\": {\"H\": 1}, \"26\": {\"H\": 1}, \"27\": {\"H\": 1}, \"28\": {\"H\": 1}, \"29\": {\"H\": 1}, \"30\": {\"H\": 1}, \"31\": {\"H\": 1}, \"32\": {\"C\": 1}, \"33\": {\"C\": 1}, \"34\": {\"C\": 1}, \"35\": {\"C\": 1}, \"36\": {\"C\": 1}, \"37\": {\"C\": 1}, \"38\": {\"C\": 1}, \"39\": {\"C\": 1}, \"40\": {\"C\": 1}, \"41\": {\"C\": 1}, \"42\": {\"C\": 1}, \"43\": {\"C\": 1}, \"44\": {\"C\": 1}, \"45\": {\"C\": 1}, \"46\": {\"C\": 1}, \"47\": {\"C\": 1}, \"48\": {\"O\": 1}, \"49\": {\"O\": 1}, \"50\": {\"O\": 1}, \"51\": {\"O\": 1}, \"52\": {\"O\": 1}, \"53\": {\"O\": 1}, \"54\": {\"O\": 1}, \"55\": {\"O\": 1}}" energy=-314.1633605957031 free_energy=-314.1633605957031 stress="0.0017965518636628985 -0.0062950593419373035 0.004064945969730616 -0.0062950593419373035 0.0028975496534258127 0.006800136994570494 0.004064945969730616 0.006800136994570494 -0.004473617300391197" pbc="T T T"
H        0.12223862       2.21335577       1.84744825        0      -0.06388235      -0.04108058      -0.23331060      -0.34890535      -0.46717724       0.26391688
H        0.31702076      -0.21474882       8.50409131        1      -0.41596669       0.28241817       0.13418001       0.19316748      -0.82258964      -0.04442103
H        7.16689581      -0.52337020       5.79422142        2      -0.01099333       0.09115178       0.18553100      -0.25331521       0.53085136      -0.08150277
H        3.56769345       0.19128012       4.81695800        3       0.00635014       0.03106371      -0.05661335      -0.45246911      -0.59983337       0.03513588
H        5.89857391       0.12906196       3.45590349        4      -0.13662963       0.06346656       0.07412508      -0.11012693      -0.04154655      -0.10463308
H        5.01440558       0.32414387       7.14335942        5       0.11996965      -0.01313378       0.16304614      -0.17231482      -0.44180489      -0.12289526
H       -1.69404179       0.62953434       9.70230153        6      -0.06773593       0.00953670      -0.07983930      -0.29939777      -0.31745756       0.05525986
H        2.37945906       2.25462945       0.31380996        7      -0.10899671       0.12801579      -0.23887809      -0.36571094      -0.41984603      -0.02494946
H       -1.28062223       1.09681351       2.00394188        8       0.10394102       0.17626283      -0.14567608      -0.56132376      -0.12197588      -0.18949582
H       -8.36548932       3.00985765       8.44664941        9       0.01874349       0.07750841      -0.14054410       0.39231914      -0.31946728      -0.01170073
H       -2.54664929       2.78893569       6.82205314       10       0.03048615       0.25775615      -0.04488798      -0.41237271      -0.20837817       1.19028461
H       -6.74143410       3.80633208       3.57290638       11       0.32050249       0.15943867       0.02898733       0.31104237       0.03236492       0.37733439
H       -3.41360539       1.09458049       3.05616296       12       0.34318373      -0.23802476       0.07743261      -0.50854105       0.08234611       0.33155927
H       -6.59466941       1.88031614       7.31880477       13       0.01536690       0.03548294       0.08656144      -0.08189686      -0.12137322       0.20796424
H       -1.92963182       2.16013654       8.81427825       14       0.12531098      -0.02323642      -0.06973031       0.40313631      -0.12264653      -0.32056496
H       -7.86690879       3.29972358       1.71696133       15      -0.08477308      -0.03159822       0.12293869      -0.01433824      -0.41004661      -0.77137715
H       -0.90235487       0.77646753       4.33988637       16      -0.08686019      -0.05814812       0.28342571       0.40912557       0.11714708       0.19912346
H        1.57326849       2.69585856       6.02312946       17       0.00715139      -0.12380901      -0.16254833      -0.29899192      -0.23123123       0.25480589
H       -0.61632283       1.91476307       6.12879315       18      -0.08876029       0.01924321      -0.05101217       0.36619356      -0.32495493       0.18464845
H        0.76835885      -0.91704692       4.28843425       19      -0.15605135       0.01894765       0.06988655      -0.03237609       0.22900382       0.08527850
H        6.70609327       1.62092023       0.91686462       20       0.01929256      -0.19191442       0.26163552       0.76997221       0.63578105      -0.47934821
H       -5.82009077       2.01052708       9.75507014       21       0.30326576       0.03656592       0.14022311      -0.00922729      -0.03741021      -0.50983781
H        5.81093416      -1.87039274       9.61285218       22       0.20657592       0.20659815      -0.02039154       0.37428039      -0.52969038       0.33497971
H       -5.59543448       3.24736133       1.04015511       23      -0.04224121      -0.11354970       0.21265896       0.13948843      -0.29076898      -0.10894001
H        0.42784603       0.48710592       2.10176738       24       0.30049797      -0.13610990      -0.00468409      -0.59484506       0.09816536      -0.19185033
H       -0.53518872      -1.77813117       8.52127419       25       0.00655561       0.08690845       0.10595490       0.65831965      -0.06782495      -0.13440600
H       -2.96285664       2.59157645       5.13270576       26      -0.25300685       0.03340905       0.06572285       0.52107209       0.35914680       0.31286687
H       -6.55716735       3.24215843       5.23786855       27      -0.16752536      -0.02805275      -0.10766374       0.03741192      -0.88641024       0.79594249
H       -5.03685279       1.93128227       3.36334309       28      -0.15021133       0.12582536      -0.10191886       0.62859130      -0.83863503      -0.54655373
H       -4.85344614       1.77016483       7.27072601       29      -0.06649241       0.16884042       0.01181314       1.25073004       0.88673663      -0.39224520
H       -0.86175598       4.56432669       0.03964642       30       0.17846374      -0.19144320      -0.07943202      -0.39176026      -0.36752406      -0.55813420
H        2.38301370       1.54051132      10.51636411       31      -0.19060844       0.01911276       0.25222972       0.14690925      -0.16933656       0.11266164
C       -0.17581897       1.46226532       3.84974166       32      -0.18515625      -0.57459538      -0.22058197       0.27883130      -0.44003421       0.08531612
C        0.22192600      -1.12504879       6.58997347       33      -0.07512328      -0.46550122       0.08488217      -0.55275548      -0.80494571       0.23250449
C       -0.84336858       2.87265025       5.66245298       34       0.04319832       0.29158549      -0.23378183       1.13017809       0.50399071      -0.24388626
C        1.43229076      -0.18392811       4.79404744       35      -0.39846558      -0.16641835      -0.07506734      -1.39263535       0.15176806      -0.49471030
C        6.06713488       0.93900035       1.43224267       36      -0.39497137      -0.32073261      -0.80955177      -1.35843754      -1.50483418      -0.67591792
C       -5.58329450       1.10380716       9.15771829       37      -0.36193202      -0.01752110       0.07000822      -0.01275302       0.62094808      -0.17375335
C       -3.52181740       1.89477509      10.09402552       38       0.16177523      -0.52863218       0.28467020       0.13258299       0.16549787      -2.07575488
C        4.51640584       2.52102927       0.51005713       39       0.36138343      -0.43527674       0.58505059       0.14678910       0.12095809       0.07939347
C       -0.28405293       1.30051716       2.35611375       40       0.19195149      -0.55821533       0.03644820       1.44869947       0.72397083      -0.52214909
C        0.37449210      -1.27541848       8.11748206       41       0.14753532       0.49373532      -0.46888059      -1.73078120       1.54831338      -0.36516982
C       -2.30636825       3.14844781       5.85186586       42      -0.25949195       1.26103882      -0.54787136      -0.30482462      -0.37170535      -1.63763201
C        2.84200269      -0.65064888       4.64737901       43       0.56034558      -0.10141612      -0.32885424       0.85266793       1.99937558      -1.91110611
C        6.24443653       1.02088159       2.92126916       44       0.40080544      -0.06552351       0.31202146       0.30223936       0.54350537       0.34550297
C       -5.72072981       1.29321542       7.63361805       45      -0.11246970      -0.13664518       1.05760836      -1.14459491      -0.53769875       0.96596080
C       -2.05012739       1.65516314       9.77267024       46      -0.47453562       0.69520750      -0.54057411       0.62453258       1.48064995       1.00712633
C        3.08351631       3.00246315       0.64822749       47      -0.01605122       0.11556209       0.01380989       0.20967275       0.51371801       0.80871850
O       -0.35411231       2.78763684       4.26978768       48       0.22350746       0.25056263       0.25663325      -1.10039794       0.01685560       0.20638089
O        1.06167985      -0.11984225       6.16496940       49      -0.16821836      -0.55392444      -0.45958755       0.11151993       0.85498673       0.49101356
O       -1.21357943      -0.78977939       6.25156088       50      -0.33543365      -0.44277469      -0.25066827       0.73390490      -0.39541683       0.41342324
O        1.20697420       1.13024275       4.19342497       51       0.17004607       0.12777109       0.14454285       0.59316158      -1.04898453       0.70126700
O       -3.31489246       4.29053999       0.93958223       52      -0.41183547      -0.17658525       0.40053864      -0.10513991       0.93135071       2.17608953
O        4.33821576       0.06296653       9.62059752       53       0.35992265       0.45633102       0.21462763       0.43338308       0.52332300      -1.13898230
O       -4.17202258       0.83010247       9.41381798       54       0.02043458       0.24051350      -0.02777878      -0.78841084      -0.43915993       0.27765217
O        4.70668948       1.20000077       0.96656717       55       0.53785631      -0.22599726      -0.23686583      -0.20127894       0.02995299       1.29980659
56
Lattice="10.7619164 0.0 0.0 -9.665296305262016 4.732958053065482 0.0 -0.5483100463354086 -2.3664790220718444 10.484177494289693" Properties=species:S:1:pos:R:3:spacegroup_kinds:I:1:momenta:R:3:forces:R:3 spacegroup="P 1" unit_cell=conventional occupancy="_JSON {\"0\": {\"H\": 1}, \"1\": {\"H\": 1}, \"2\": {\"H\": 1}, \"3\": {\"H\": 1}, \"4\": {\"H\": 1}, \"5\": {\"H\": 1}, \"6\": {\"H\": 1}, \"7\": {\"H\": 1}, \"8\": {\"H\": 1}, \"9\": {\"H\": 1}, \"10\": {\"H\": 1}, \"11\": {\"H\": 1}, \"12\": {\"H\": 1}, \"13\": {\"H\": 1}, \"14\": {\"H\": 1}, \"15\": {\"H\": 1}, \"16\": {\"H\": 1}, \"17\": {\"H\": 1}, \"18\": {\"H\": 1}, \"19\": {\"H\": 1}, \"20\": {\"H\": 1}, \"21\": {\"H\": 1}, \"22\": {\"H\": 1}, \"23\": {\"H\": 1}, \"24\": {\"H\": 1}, \"25\": {\"H\": 1}, \"26\": {\"H\": 1}, \"27\": {\"H\": 1}, \"28\": {\"H\": 1}, \"29\": {\"H\": 1}, \"30\": {\"H\": 1}, \"31\": {\"H\": 1}, \"32\": {\"C\": 1}, \"33\": {\"C\": 1}, \"34\": {\"C\": 1}, \"35\": {\"C\": 1}, \"36\": {\"C\": 1}, \"37\": {\"C\": 1}, \"38\": {\"C\": 1}, \"39\": {\"C\": 1}, \"40\": {\"C\": 1}, \"41\": {\"C\": 1}, \"42\": {\"C\": 1}, \"43\": {\"C\": 1}, \"44\": {\"C\": 1}, \"45\": {\"C\": 1}, \"46\": {\"C\": 1}, \"47\": {\"C\": 1}, \"48\": {\"O\": 1}, \"49\": {\"O\": 1}, \"50\": {\"O\": 1}, \"51\": {\"O\": 1}, \"52\": {\"O\": 1}, \"53\": {\"O\": 1}, \"54\": {\"O\": 1}, \"55\": {\"O\": 1}}" energy=-313.85382080078125 free_energy=-313.85382080078125 stress="0.013761425390839577 -0.00487943273037672 -0.0056743077002465725 -0.00487943273037672 0.0061638373881578445 0.005476056132465601 -0.0056743077002465725 0.005476056132465601 -0.00181289401371032" pbc="T T T"
H        0.15152019       2.21865811       1.86996612        0       0.18670794      -0.17536468       0.06887310      -0.25462964      -0.83075428       0.05804847
H        0.10920512      -0.19334259       8.62244506        1      -0.00897901       0.26460753      -0.03107032       0.20135950      -1.45994401      -1.01799393
H        7.15516434      -0.39883634       5.76710617        2       0.22383256       0.15937091      -0.34067701       0.18644550       0.19728182      -0.26340407
H        3.55287385       0.14212047       5.10648263        3      -0.16824470      -0.25377505       0.22539331      -0.53552741      -0.32389835      -0.69895917
H        5.71904796       0.28007970       3.48878609        4      -0.14175100       0.06957679       0.07981236      -0.42629445      -0.45673642       0.12704813
H        5.07217440       0.33732711       7.23278701        5      -0.02221066       0.07819953       0.03358483       0.14585115      -0.33883572      -0.34743685
H       -1.86337462       0.61454907       9.70908652        6       0.00209978      -0.06951266       0.02682892       0.35397297       0.27212724       0.03441973
H        2.40409165       2.23500122       0.27412501        7      -0.05904466      -0.08227805      -0.03197364       0.20295025       0.43273556      -0.32657444
H       -1.27779553       1.10993528       2.00836779        8      -0.09536159      -0.13044326       0.02708143      -0.83862400       0.04003523      -0.43664208
H       -8.33962620       3.21420941       8.35225620        9       0.17273724       0.29406238      -0.08361753       0.23368175       0.22765639      -0.09218048
H       -2.54133530       3.01261329       6.85842853       10       0.10491063       0.07367806       0.12017986      -0.11240844      -0.33224428       0.81576574
H       -6.39093376       3.84895155       3.60576965       11       0.14443718       0.00657620      -0.00789982      -0.26306620       0.31059235      -0.29988950
H       -3.37778212       0.94136154       3.24467998       12       0.01522223      -0.07500951       0.19342071      -1.33400345      -0.10755474      -0.76893091
H       -6.68609544       1.78694166       7.51153389       13      -0.08667857      -0.27258669      -0.01170155      -0.20095988      -0.13164501      -0.15521681
H       -1.76453225       2.05976724       8.70170580       14       0.02189861      -0.10309579       0.09738790      -0.31269678       0.19350053       0.31044704
H       -7.95446004       3.02340534       1.79564965       15      -0.04973545      -0.11226874       0.02076846       0.41189468       0.38057804      -1.18562376
H       -0.80018667       0.77039122       4.49092964       16       0.00831333      -0.06072641      -0.00660545       0.00096949       0.17438696      -0.99411517
H        1.44500771       2.50713077       6.17382277       17       0.01225035      -0.28997485      -0.01209835       0.24866395       1.14403510       0.13491316
H       -0.56090758       1.92546783       6.04306258       18       0.00912443       0.02953026      -0.02228972      -0.35387009      -0.16754892       0.13082819
H        0.67939895      -0.89355044       4.27079631       19       0.07644929      -0.05095138      -0.04691366       0.30057666      -0.10529551      -0.07734916
H        6.74714449       1.49845910       0.85340930       20      -0.11245967      -0.08927573      -0.22056972       0.51640958       1.18712330      -0.49471226
H       -5.80988203       2.10952449       9.71365892       21      -0.20491578       0.06817239      -0.10894767       0.02467431      -0.34780294      -0.22419620
H        5.87596104      -1.83571082       9.70363722       22      -0.16164972       0.07076630       0.03590472      -0.15178779      -0.88952625      -0.00086338
H       -5.50015879       3.11440196       1.13784150       23       0.11933119       0.03126384      -0.00442134      -0.11865087       0.35620713      -0.32354987
H        0.36855218       0.33657755       1.99417352       24      -0.04607086      -0.23447385      -0.15432076      -1.04204273       1.71019566       0.43702263
H       -0.32413895      -2.00709535       8.53026257       25       0.20339060      -0.17844309      -0.18322146       0.05246244       0.67888910      -0.27905232
H       -3.08714246       2.74677630       5.19721876       26      -0.01915448       0.07455461      -0.09249853       0.58998162       0.03474024       0.12557988
H       -6.69673480       3.25872609       5.21696379       27      -0.09696534      -0.06688938      -0.04755572       0.17544451      -1.07493138       0.50442189
H       -4.83143351       2.04721368       3.16449864       28       0.33766966       0.12941206       0.00704990       0.39478117      -1.34767866      -0.01897363
H       -4.93754028       1.99042844       7.37634391       29       0.05869052       0.23203823       0.01089306      -0.29873669      -0.47476238      -0.05642423
H       -0.81005393       4.51876365       0.00822832       30      -0.20155770       0.23295213      -0.03457194      -0.26691586      -0.02006656      -0.48482364
H        2.48120422       1.62674257      10.66760479       31       0.30393410      -0.01816111       0.05312255      -0.25146654      -0.60053110       0.38425648
C       -0.17497677       1.41202888       3.81608588       32       0.11041277      -0.26315992      -0.10980232       0.95673048       0.41550258       1.33581209
C        0.16861399      -1.18805867       6.60335739       33      -0.76776902       0.02200136       0.67403978      -0.22194320       0.09040970      -0.69299805
C       -0.81165542       2.89924227       5.59186424       34      -0.05282412       0.32732974      -0.63230748      -1.19237614      -0.34071547       0.60170048
C        1.38527139      -0.18167029       4.74198788       35       0.10269937       0.21879183      -0.68694717       0.81694746      -0.55123603      -0.59415787
C        6.06620577       0.86818200       1.37965231       36       0.53230864      -0.54626102       0.08532701      -0.00823047      -0.53997535       1.85034430
C       -5.59710013       1.15461052       9.17270550       37       0.05871141       1.06856371       0.55336476       0.70454955       0.84736210       1.79725587
C       -3.48648168       1.86752584      10.06803997       38       0.30032638       0.37939506      -0.58623105      -0.95997179       1.52577591      -0.53066218