56
Lattice="10.7619164 0.0 0.0 -9.665296305262016 4.732958053065482 0.0 -0.5483100463354086 -2.3664790220718444 10.484177494289693" Properties=species:S:1:pos:R:3:spacegroup_kinds:I:1:forces:R:3 spacegroup="P 1" unit_cell=conventional occupancy="_JSON {\"0\": {\"H\": 1}, \"1\": {\"H\": 1}, \"2\": {\"H\": 1}, \"3\": {\"H\": 1}, \"4\": {\"H\": 1}, \"5\": {\"H\": 1}, \"6\": {\"H\": 1}, \"7\": {\"H\": 1}, \"8\": {\"H\": 1}, \"9\": {\"H\": 1}, \"10\": {\"H\": 1}, \"11\": {\"H\": 1}, \"12\": {\"H\": 1}, \"13\": {\"H\": 1}, \"14\": {\"H\": 1}, \"15\": {\"H\": 1}, \"16\": {\"H\": 1}, \"17\": {\"H\": 1}, \"18\": {\"H\": 1}, \"19\": {\"H\": 1}, \"20\": {\"H\": 1}, \"21\": {\"H\": 1}, \"22\": {\"H\": 1}, \"23\": {\"H\": 1}, \"24\": {\"H\": 1}, \"25\": {\"H\": 1}, \"26\": {\"H\": 1}, \"27\": {\"H\": 1}, \"28\": {\"H\": 1}, \"29\": {\"H\": 1}, \"30\": {\"H\": 1}, \"31\": {\"H\": 1}, \"32\": {\"C\": 1}, \"33\": {\"C\": 1}, \"34\": {\"C\": 1}, \"35\": {\"C\": 1}, \"36\": {\"C\": 1}, \"37\": {\"C\": 1}, \"38\": {\"C\": 1}, \"39\": {\"C\": 1}, \"40\": {\"C\": 1}, \"41\": {\"C\": 1}, \"42\": {\"C\": 1}, \"43\": {\"C\": 1}, \"44\": {\"C\": 1}, \"45\": {\"C\": 1}, \"46\": {\"C\": 1}, \"47\": {\"C\": 1}, \"48\": {\"O\": 1}, \"49\": {\"O\": 1}, \"50\": {\"O\": 1}, \"51\": {\"O\": 1}, \"52\": {\"O\": 1}, \"53\": {\"O\": 1}, \"54\": {\"O\": 1}, \"55\": {\"O\": 1}}" energy=-315.20623779296875 free_energy=-315.20623779296875 stress="0.0015259676147252321 -0.0007349737570621073 -5.840825565428531e-07 -0.0007349737570621073 -0.0014768238179385662 6.523910656142107e-08 -5.840825565428531e-07 6.523910656142107e-08 0.0016979894135147333" pbc="T T T"
H       -0.01248427       2.27696696       1.83153339        0       0.07122687       0.02707755       0.05251677
H        0.46428407      -0.32702137       8.65264411        1      -0.05205543       0.05564445      -0.05251540
H        7.11696904      -0.62167877       5.76820574        2       0.06071824       0.02959748      -0.06332436
H        3.54843712       0.20514534       4.71597175        3      -0.04159813       0.05318744       0.06330243
H        5.94175252       0.08951207       3.41055536        4      -0.07122654      -0.02707710      -0.05251747
H        4.91667413       0.32702137       7.07362213        5       0.05205800      -0.05563770       0.05251891
H       -1.73601084       0.62167878       9.95806050        6      -0.06071929      -0.02958668       0.06332384
H        2.38083113       2.16133369       0.52611700        7       0.04159745      -0.05318592      -0.06330097
H       -1.38564785       1.18011340       2.11584331        8       0.00912188       0.09641416       0.00989613
H       -8.45014457       2.81694541       8.36833418        9       0.03391340       0.09078121      -0.00994025
H       -2.58250803       2.70418269       6.85836100       10       0.03144334       0.09145366       0.01228179
H       -6.70499477       3.65935988       3.62581649       11       0.01202217       0.09588329      -0.01239189
H       -3.44700030       1.18636563       3.12624543       12      -0.00912232      -0.09641391      -0.00989518
H       -6.59610993       1.91601265       7.35793206       13      -0.03391636      -0.09078076       0.00994106
H       -1.70183007       2.02877537       8.86790524       14      -0.03144043      -0.09144852      -0.01229334
H       -7.79294969       3.44007720       1.61627226       15      -0.01202433      -0.09588432       0.01238962
H       -0.77544238       0.72057867       4.36236141       16      -0.05580220      -0.06497575       0.06553181
H        1.56164860       2.67260202       6.12181608       17       0.02151170      -0.08285759      -0.06550469
H       -0.46393564       1.89516633       6.16016720       18       0.04679152      -0.08891350       0.03981792
H        0.70181139      -0.86845994       4.32401029       19      -0.08095911      -0.05914012      -0.03975113
H        6.70471062       1.64590036       0.87972733       20       0.05580552       0.06498120      -0.06553402
H       -5.84598670       2.06035604       9.60445016       21      -0.02151364       0.08285381       0.06550375
H        5.84489385      -1.89516633       9.56609904       22      -0.04679289       0.08891536      -0.03981609
H       -5.53445954       3.23493897       0.91807845       23       0.08095698       0.05914027       0.03974709
H        0.25131050       0.51347389       1.94957474       24      -0.00851110      -0.01871594      -0.03717793
H       -0.54820374      -1.79480395       8.53460275       25      -0.00032948      -0.02044828       0.03709345
H       -2.80766320       2.46899490       5.11315433       26      -0.04083828      -0.01125236       0.00405171
H       -6.60619587       3.34910738       5.37102316       27       0.03167361      -0.02802480      -0.00411326
H       -5.08395866       1.85300514       3.29251401       28       0.00851503       0.01871284       0.03717751
H       -4.83275446       1.79480396       7.19166349       29       0.00034749       0.02045770      -0.03709854
H       -0.92836486       4.63044218       0.12893441       30       0.04083335       0.01124324      -0.00406422
H        2.32185777       1.38385068      10.35524308       31      -0.03167574       0.02802730       0.00411087
C       -0.12835063       1.44534837       3.84841655       32      -0.01445484       0.09213230      -0.08206722
C        0.20260826      -1.12485611       6.63576095       33       0.05361568       0.07627261       0.08205748
C       -0.77226604       2.84130358       5.69336968       34      -0.06051254       0.10292950       0.03487972
C        1.39483372      -0.15433229       4.79080781       35       0.09947327       0.06571019      -0.03489188
C        6.05761888       0.92113066       1.39367220       36       0.01444720      -0.09213756       0.08206934
C       -5.58356646       1.12485611       9.09050530       37      -0.05360273      -0.07626295      -0.08206052
C       -3.51207206       1.89165448      10.03289656       38       0.06052458      -0.10293416      -0.03488912
C        4.53443453       2.52081132       0.45128094       39      -0.09947118      -0.06571996       0.03490283
C       -0.32593927       1.35886302       2.34265801       40      -0.02487606      -0.04884084       0.03836663
C        0.34202778      -1.28942579       8.14151949       41       0.00090399      -0.05509168      -0.03820979
C       -2.26824862       3.05565688       5.86632716       42       0.02524401      -0.06073731       0.01393194
C        2.83264719      -0.61974062       4.61785033       43      -0.04931978      -0.04330876      -0.01374464
C        6.25520752       1.00761601       2.89943074       44       0.02487230       0.04884344      -0.03836605
C       -5.72298598       1.28942580       7.58474676       45      -0.00092386       0.05507532       0.03821231
C       -2.01608948       1.67730118       9.85993908       46      -0.02525459       0.06073096      -0.01389948
C        3.09662106       2.98621965       0.62423841       47       0.04932646       0.04330599       0.01374363
O       -0.42625656       2.75924355       4.28180099       48       0.00567042      -0.06416634       0.01081656
O        1.04798334      -0.07585512       6.20237650       49      -0.03317403      -0.05508551      -0.01086389
O       -1.17294689      -0.80803189       6.28015861       50      -0.00324892      -0.06212863      -0.01994161
O        1.24638404       1.12493657       4.20401888       51      -0.02462108      -0.05716430       0.01989342
O       -3.30977150       4.34019353       0.96028775       52      -0.00567067       0.06416543      -0.01082128
O        4.33297486       0.07585512       9.52388974       53       0.03316791       0.05508552       0.01086740
O       -4.20801131       0.80803190       9.44610763       54       0.00324861       0.06213067       0.01994637
O        4.68288421       1.24154246       1.03806987       55       0.02462512       0.05716883      -0.01989805
