32
Lattice="6.17176593 0.0 0.0 0.0 8.01859859 0.0 0.0 0.0 13.03281824" Properties=species:S:1:pos:R:3:spacegroup_kinds:I:1:forces:R:3 spacegroup="P 1" unit_cell=conventional occupancy="_JSON {\"0\": {\"Li\": 1}, \"1\": {\"Li\": 1}, \"2\": {\"Li\": 1}, \"3\": {\"Li\": 1}, \"4\": {\"Li\": 1}, \"5\": {\"Li\": 1}, \"6\": {\"Li\": 1}, \"7\": {\"Li\": 1}, \"8\": {\"Li\": 1}, \"9\": {\"Li\": 1}, \"10\": {\"Li\": 1}, \"11\": {\"Li\": 1}, \"12\": {\"P\": 1}, \"13\": {\"P\": 1}, \"14\": {\"P\": 1}, \"15\": {\"P\": 1}, \"16\": {\"S\": 1}, \"17\": {\"S\": 1}, \"18\": {\"S\": 1}, \"19\": {\"S\": 1}, \"20\": {\"S\": 1}, \"21\": {\"S\": 1}, \"22\": {\"S\": 1}, \"23\": {\"S\": 1}, \"24\": {\"S\": 1}, \"25\": {\"S\": 1}, \"26\": {\"S\": 1}, \"27\": {\"S\": 1}, \"28\": {\"S\": 1}, \"29\": {\"S\": 1}, \"30\": {\"S\": 1}, \"31\": {\"S\": 1}}" energy=-140.3463134765625 free_energy=-140.3463134765625 stress="-0.002888611052185297 -7.117534561729144e-09 6.0010800773113715e-09 -7.117534561729144e-09 -0.004072241950780153 8.70884875325828e-09 6.0010800773113715e-09 8.70884875325828e-09 -0.002593589248135686" pbc="T T T"
Li       2.40166810       0.26892250       4.33377958        0      -0.01549000       0.00236031       0.00063495
Li       3.77009790       7.74967602       8.69903843        1       0.01548979      -0.00236140      -0.00063051
Li       5.48755105       7.74967606       2.18262939        2      -0.01549293      -0.00235984      -0.00063226
Li       0.68421478       0.26892246      10.85018871        3       0.01549047       0.00236079       0.00063258
Li       3.77009793       4.27822189       8.69903843        4       0.01548779       0.00235867      -0.00063394
Li       2.40166815       3.74037677       4.33377960        5      -0.01549006      -0.00235972       0.00063372
Li       0.68421482       3.74037680      10.85018871        6       0.01549085      -0.00236034       0.00063217
Li       5.48755101       4.27822189       2.18262942        7      -0.01549244       0.00236026      -0.00062995
Li       3.08588290      -0.00000008       0.00000009        8      -0.00000063       0.00000197      -0.00000128
Li       0.00000003      -0.00000004       6.51640917        9       0.00000100       0.00000099      -0.00000132
Li       3.08588295       4.00929936       0.00000006       10      -0.00000106      -0.00000245       0.00000146
Li       0.00000001       4.00929933       6.51640920       11       0.00000084      -0.00000016      -0.00000196
P        0.93932955       2.00464932       1.16793468       12      -0.00066661       0.00000940       0.03303622
P        5.23243628       6.01394889      11.86488424       13       0.00067075       0.00000116      -0.03306181
P        4.02521225       6.01394887       5.34847524       14      -0.00065136       0.00000125      -0.03306317
P        2.14655385       2.00464970       7.68434322       15       0.00065397      -0.00000010       0.03305286
S        5.07612358       2.00464958       1.30682518       16       0.00280224       0.00000119       0.01274817
S        1.09564242       6.01394883      11.72599296       17      -0.00280856       0.00000030      -0.01274628
S        1.99024092       6.01394888       5.20958385       18       0.00279205       0.00000138      -0.01274366
S        4.18152508       2.00464970       7.82323422       19      -0.00279223      -0.00000023       0.01274636
S        1.68772175       2.00464969      12.25093562       20       0.03397162      -0.00000076       0.02524857
S        4.48404413       6.01394888       0.78188258       21      -0.03397336       0.00000008      -0.02523622
S        4.77360473       6.01394895       7.29829161       22       0.03397192       0.00000029      -0.02523639
S        1.39816134       2.00464969       5.73452694       23      -0.03397347      -0.00000080       0.02523992
S        1.68016697       0.28147988       2.00960385       24       0.02273498      -0.00259480      -0.01691882
S        4.49159896       7.73711930      11.02321408       25      -0.02272980       0.00258484       0.01692516
S        4.76604992       7.73711924       4.50680506       26       0.02272888       0.00258036       0.01692922
S        1.40571576       0.28147957       8.52601307       27      -0.02272704      -0.00258549      -0.01692782
S        4.49159897       4.29077885      11.02321423       28      -0.02273031      -0.00258637       0.01692592
S        1.68016711       3.72781969       2.00960398       29       0.02273097       0.00258403      -0.01692272
S        1.40571577       3.72781976       8.52601313       30      -0.02272793       0.00258719      -0.01692800
S        4.76604999       4.29077860       4.50680505       31       0.02272964      -0.00258208       0.01692892
