32
Lattice="6.17176593 0.0 0.0 0.0 8.01859859 0.0 0.0 0.0 13.03281824" Properties=species:S:1:pos:R:3:spacegroup_kinds:I:1:momenta:R:3:forces:R:3 spacegroup="P 1" unit_cell=conventional occupancy="_JSON {\"0\": {\"Li\": 1}, \"1\": {\"Li\": 1}, \"2\": {\"Li\": 1}, \"3\": {\"Li\": 1}, \"4\": {\"Li\": 1}, \"5\": {\"Li\": 1}, \"6\": {\"Li\": 1}, \"7\": {\"Li\": 1}, \"8\": {\"Li\": 1}, \"9\": {\"Li\": 1}, \"10\": {\"Li\": 1}, \"11\": {\"Li\": 1}, \"12\": {\"P\": 1}, \"13\": {\"P\": 1}, \"14\": {\"P\": 1}, \"15\": {\"P\": 1}, \"16\": {\"S\": 1}, \"17\": {\"S\": 1}, \"18\": {\"S\": 1}, \"19\": {\"S\": 1}, \"20\": {\"S\": 1}, \"21\": {\"S\": 1}, \"22\": {\"S\": 1}, \"23\": {\"S\": 1}, \"24\": {\"S\": 1}, \"25\": {\"S\": 1}, \"26\": {\"S\": 1}, \"27\": {\"S\": 1}, \"28\": {\"S\": 1}, \"29\": {\"S\": 1}, \"30\": {\"S\": 1}, \"31\": {\"S\": 1}}" energy=-140.16175842285156 free_energy=-140.16175842285156 stress="0.0021254983730614185 -0.0004941886872984469 0.0001160294923465699 -0.0004941886872984469 -0.004174200352281332 -0.0008727781823836267 0.0001160294923465699 -0.0008727781823836267 -0.0017719033639878035" pbc="T T T"
Li       2.42841249       0.18877811       4.32687078        0       0.06750113       0.18796061       0.01681245      -0.12780502       0.17041166      -0.01287133
Li       3.78070830       7.80163976       8.63117716        1       0.04297743       0.20402092      -0.04217267      -0.04345369      -0.12735763       0.12020855
Li       5.42756750       7.82359539       2.17948674        2      -0.32313865      -0.21191046      -0.26728120       0.11740017      -0.08347345       0.01479780
Li       0.63531773       0.33997758      10.89495096        3      -0.36062202      -0.15891546       0.04231082       0.02055266      -0.10733927      -0.05694446
Li       3.73024990       4.21858652       8.59396807        4      -0.23447426      -0.11501600      -0.02929683       0.02104052       0.08743177       0.11236662
Li       2.37778927       3.78011940       4.34855875        5       0.16383075       0.02338113       0.02695677       0.04795782      -0.12563768      -0.04997016
Li       0.66942887       3.82836417      10.92367414        6       0.11825914       0.12224202       0.18874837       0.16434619      -0.25491685      -0.10483098
Li       5.41361173       4.37012235       2.19684929        7       0.01044605       0.23875561       0.09757999       0.19097668      -0.23794556       0.05919324
Li       3.10941438      -0.08092842      -0.07892352        8      -0.21288854       0.03037187      -0.14693739      -0.19165552       0.11686470       0.17907158
Li      -0.10196540       0.06960923       6.53091114        9      -0.40103729       0.44895171       0.19304875       0.06970458       0.05061015       0.08697668
Li       3.20496725       4.03818374       0.01048021       10       0.21752829      -0.10671671       0.12139757      -0.14397076      -0.13978399       0.08901386
Li      -0.03479620       4.02574776       6.58752443       11       0.16173415      -0.12330163       0.34692120       0.05239132      -0.04647824      -0.04952765
P        0.92905880       2.01370608       1.18769558       12       0.32913242       0.17487542      -0.29256600       0.02057518      -0.06689911      -0.07669786
P        5.23326835       5.98641706      11.81782362       13       0.08451241       0.42697265      -0.51538978       0.24749590       0.68520248       0.29662901
P        4.03728659       6.00226611       5.35593671       14       0.34559548      -0.58058001       0.10924476      -0.07525289       0.18316162       0.12519445
P        2.12232550       1.99041694       7.68653715       15      -0.52768913      -0.10789970       0.57628425       0.35476419       0.05960802      -0.06239583
S        5.03538740       1.99941888       1.31904823       16      -0.34042012       0.26718593       0.14832197       0.41053939       0.23321006      -0.01737730
S        1.11216100       6.00365877      11.75726297       17       0.42849404      -0.21727379      -0.27725779      -0.20458448       0.17794538      -0.18557490
S        1.98352657       5.98502666       5.20120077       18       0.02836898      -0.68653464      -0.21728197       0.35281998       0.11686402       0.04602222
S        4.20074324       1.99034821       7.79967261       19       0.72088916      -0.26123198      -0.66925430      -0.35637379       0.03358024      -0.01696636
S        1.68004116       2.00600207      12.26162631       20       0.03109472      -0.15741582       0.12923840      -0.01149754       0.12353338       0.11060683
S        4.56107212       6.04585869       0.78274071       21       0.59067500       0.59374479      -0.23486050      -0.25656521      -0.07125925      -0.37536725
S        4.75091709       5.99076412       7.34194212       22      -0.76449747       0.23928556       0.12930524      -0.03427895       0.15627928      -0.37158233
S        1.39509557       2.02375142       5.74434924       23       0.11917572       0.19834674       0.38964788      -0.03641833      -0.12201647      -0.11096375
S        1.69383975       0.26598774       1.98788249       24       0.61733497       0.05507574       0.05617776      -0.15954694       0.20377937      -0.00632221
S        4.46323731       7.73075542      10.99116268       25      -0.38797024       0.36394544      -0.32008667       0.18646157      -0.27762425       0.02308161
S        4.79311345       7.74956144       4.51106454       26       0.34840683      -0.28891920       0.48317249      -0.18596917      -0.33719426       0.16662872
S        1.38761768       0.28746480       8.53398761       27      -0.61794356      -0.22571263       0.06585294      -0.02529577      -0.14299761       0.04116984
S        4.49457837       4.30172313      10.96484571       28      -0.11297386       0.15888781      -1.01903867      -0.14759301      -0.21489334      -0.01170693
S        1.68622108       3.74779227       2.00526952       29      -0.11874883       0.39338692       0.59977908      -0.15429188      -0.12174104      -0.01771905
S        1.39039045       3.70489927       8.53500125       30      -0.51361824      -0.47300982      -0.23766536      -0.01067432       0.09508973       0.14399289
S        4.81399859       4.29149396       4.54559710       31       0.49006552      -0.41295306       0.54828850      -0.09179904      -0.01601373      -0.08813535
