32
Lattice="6.17176593 0.0 0.0 0.0 8.01859859 0.0 0.0 0.0 13.03281824" Properties=species:S:1:pos:R:3:spacegroup_kinds:I:1:momenta:R:3:forces:R:3 spacegroup="P 1" unit_cell=conventional occupancy="_JSON {\"0\": {\"Li\": 1}, \"1\": {\"Li\": 1}, \"2\": {\"Li\": 1}, \"3\": {\"Li\": 1}, \"4\": {\"Li\": 1}, \"5\": {\"Li\": 1}, \"6\": {\"Li\": 1}, \"7\": {\"Li\": 1}, \"8\": {\"Li\": 1}, \"9\": {\"Li\": 1}, \"10\": {\"Li\": 1}, \"11\": {\"Li\": 1}, \"12\": {\"P\": 1}, \"13\": {\"P\": 1}, \"14\": {\"P\": 1}, \"15\": {\"P\": 1}, \"16\": {\"S\": 1}, \"17\": {\"S\": 1}, \"18\": {\"S\": 1}, \"19\": {\"S\": 1}, \"20\": {\"S\": 1}, \"21\": {\"S\": 1}, \"22\": {\"S\": 1}, \"23\": {\"S\": 1}, \"24\": {\"S\": 1}, \"25\": {\"S\": 1}, \"26\": {\"S\": 1}, \"27\": {\"S\": 1}, \"28\": {\"S\": 1}, \"29\": {\"S\": 1}, \"30\": {\"S\": 1}, \"31\": {\"S\": 1}}" energy=-140.31869506835938 free_energy=-140.31869506835938 stress="-0.007170621771365404 -8.11929545818657e-09 3.6070015863032268e-09 -8.11929545818657e-09 -0.008259412832558155 -1.0443143239058372e-08 3.6070015863032268e-09 -1.0443143239058372e-08 -0.005266297608613968" pbc="T T T"
Li       2.40329652       0.26860172       4.33400832        0       0.00000000       0.00000000       0.00000000      -0.02603557       0.00549132      -0.00432166
Li       3.76846941       7.74999687       8.69880992        1       0.00000000       0.00000000       0.00000000       0.02603647      -0.00549172       0.00432319
Li       5.48917948       7.74999687       2.18240080        2       0.00000000       0.00000000       0.00000000      -0.02603600      -0.00549099       0.00432296
Li       0.68258645       0.26860172      10.85041744        3       0.00000000       0.00000000       0.00000000       0.02603545       0.00549212      -0.00431930
Li       3.76846941       4.27790102       8.69880992        4       0.00000000       0.00000000       0.00000000       0.02603616       0.00549110       0.00432252
Li       2.40329652       3.74069757       4.33400832        5       0.00000000       0.00000000       0.00000000      -0.02603624      -0.00549181      -0.00432155
Li       0.68258645       3.74069757      10.85041744        6       0.00000000       0.00000000       0.00000000       0.02603619      -0.00549181      -0.00431986
Li       5.48917948       4.27790102       2.18240080        7       0.00000000       0.00000000       0.00000000      -0.02603570       0.00549031       0.00432269
Li       3.08588297       0.00000000       0.00000000        8       0.00000000       0.00000000       0.00000000      -0.00000024      -0.00000081      -0.00000089
Li       0.00000000       0.00000000       6.51640912        9       0.00000000       0.00000000       0.00000000      -0.00000038       0.00000072      -0.00000001
Li       3.08588297       4.00929929       0.00000000       10       0.00000000       0.00000000       0.00000000       0.00000026       0.00000136       0.00000036
Li       0.00000000       4.00929929       6.51640912       11       0.00000000       0.00000000       0.00000000       0.00000036       0.00000027      -0.00000004
P        0.94051010       2.00464965       1.16601784       12       0.00000000       0.00000000       0.00000000      -0.02067206      -0.00000009       0.02376162
P        5.23125583       6.01394894      11.86680040       13       0.00000000       0.00000000       0.00000000       0.02066632       0.00000042      -0.02375890
P        4.02639307       6.01394894       5.35039128       14       0.00000000       0.00000000       0.00000000      -0.02066760       0.00000006      -0.02375512
P        2.14537286       2.00464965       7.68242696       15       0.00000000       0.00000000       0.00000000       0.02066813       0.00000041       0.02375755
S        5.08970823       2.00464965       1.30575389       16       0.00000000       0.00000000       0.00000000      -0.25450501       0.00000026       0.01679078
S        1.08205770       6.01394894      11.72706435       17       0.00000000       0.00000000       0.00000000       0.25450814      -0.00000082      -0.01679251
S        2.00382526       6.01394894       5.21065523       18       0.00000000       0.00000000       0.00000000      -0.25450632      -0.00000115      -0.01679235
S        4.16794067       2.00464965       7.82216301       19       0.00000000       0.00000000       0.00000000       0.25450113       0.00000012       0.01678931
S        1.68132889       2.00464965      12.25955363       20       0.00000000       0.00000000       0.00000000       0.10912241       0.00000010      -0.16719598
S        4.49043704       6.01394894       0.77326461       21       0.00000000       0.00000000       0.00000000      -0.10912043       0.00000030       0.16718145
S        4.76721186       6.01394894       7.28967373       22       0.00000000       0.00000000       0.00000000       0.10912082      -0.00000006       0.16717923
S        1.40455407       2.00464965       5.74314451       23       0.00000000       0.00000000       0.00000000      -0.10911943       0.00000039      -0.16718121
S        1.67233151       0.29287049       2.00524453       24       0.00000000       0.00000000       0.00000000       0.13957819      -0.21272604       0.08709847
S        4.49943442       7.72572810      11.02757371       25       0.00000000       0.00000000       0.00000000      -0.13957627       0.21272516      -0.08709252
S        4.75821447       7.72572810       4.51116459       26       0.00000000       0.00000000       0.00000000       0.13957512       0.21272522      -0.08709228
S        1.41355146       0.29287049       8.52165365       27       0.00000000       0.00000000       0.00000000      -0.13957547      -0.21272045       0.08709110
S        4.49943442       4.30216979      11.02757371       28       0.00000000       0.00000000       0.00000000      -0.13957793      -0.21272577      -0.08709371
S        1.67233151       3.71642880       2.00524453       29       0.00000000       0.00000000       0.00000000       0.13957869       0.21272676       0.08709879
S        1.41355146       3.71642880       8.52165365       30       0.00000000       0.00000000       0.00000000      -0.13957547       0.21272065       0.08709133
S        4.75821447       4.30216979       4.51116459       31       0.00000000       0.00000000       0.00000000       0.13957614      -0.21272555      -0.08709356
32
Lattice="6.17176593 0.0 0.0 0.0 8.01859859 0.0 0.0 0.0 13.03281824" Properties=species:S:1:pos:R:3:spacegroup_kinds:I:1:momenta:R:3:forces:R:3 spacegroup="P 1" unit_cell=conventional occupancy="_JSON {\"0\": {\"Li\": 1}, \"1\": {\"Li\": 1}, \"2\": {\"Li\": 1}, \"3\": {\"Li\": 1}, \"4\": {\"Li\": 1}, \"5\": {\"Li\": 1}, \"6\": {\"Li\": 1}, \"7\": {\"Li\": 1}, \"8\": {\"Li\": 1}, \"9\": {\"Li\": 1}, \"10\": {\"Li\": 1}, \"11\": {\"Li\": 1}, \"12\": {\"P\": 1}, \"13\": {\"P\": 1}, \"14\": {\"P\": 1}, \"15\": {\"P\": 1}, \"16\": {\"S\": 1}, \"17\": {\"S\": 1}, \"18\": {\"S\": 1}, \"19\": {\"S\": 1}, \"20\": {\"S\": 1}, \"21\": {\"S\": 1}, \"22\": {\"S\": 1}, \"23\": {\"S\": 1}, \"24\": {\"S\": 1}, \"25\": {\"S\": 1}, \"26\": {\"S\": 1}, \"27\": {\"S\": 1}, \"28\": {\"S\": 1}, \"29\": {\"S\": 1}, \"30\": {\"S\": 1}, \"31\": {\"S\": 1}}" energy=-140.31834411621094 free_energy=-140.31834411621094 stress="-0.007174232508987188 3.303655466879718e-05 -8.246543984569144e-06 3.303655466879718e-05 -0.008302923291921616 6.079452941776253e-05 -8.246543984569144e-06 6.079452941776253e-05 -0.005255010444670916" pbc="T T T"
Li       2.40242705       0.26819678       4.33352883        0      -0.02382442      -0.01265733       0.02301583      -0.02416214       0.00606897      -0.00378552
Li       3.76759718       7.74907814       8.69978622        1      -0.01307554      -0.02036887       0.02370538       0.02522762      -0.00462521       0.00233397
Li       5.49119334       7.75455375       2.18427029        2       0.09941823       0.15100258       0.07110021      -0.03385733      -0.01695476      -0.00087136
Li       0.68506035       0.26944619      10.85337013        3       0.09414768       0.02735221       0.14634352       0.02044602       0.00070453      -0.01115441
Li       3.76977708       4.27572123       8.69786915        4       0.03939411      -0.14542639      -0.05312631       0.02493978       0.00866670       0.00826725
Li       2.40314945       3.74040105       4.33342728        5       0.01987990      -0.00522857      -0.02484852      -0.02395262      -0.00478217      -0.00281561
Li       0.68088080       3.74115542      10.84978112        6      -0.04795419      -0.00186143       0.00131579       0.03159849      -0.00787278      -0.00288710
Li       5.48956178       4.27932176       2.18464234        7      -0.01463869       0.05853517       0.14131819      -0.02577739       0.00376474       0.00082423
Li       3.08574738      -0.00150687       0.00054958        8      -0.01331905      -0.05367663       0.05635817       0.00069117      -0.00019230      -0.00097424
Li       0.00001611       0.00076236       6.51678878        9      -0.01097382       0.03192023       0.01696172      -0.00128696       0.00026532      -0.00177301
Li       3.08789711       4.00990883       0.00190110       10       0.05759800       0.05415956       0.04411375      -0.00122939      -0.00251508      -0.00196311
Li      -0.00225400       4.01157730       6.51792533       11      -0.06606651       0.05439357       0.12357923       0.00474400      -0.00489511      -0.00208628
P        0.94059379       2.00450300       1.16633497       12      -0.05267716      -0.05680264       0.05362060      -0.02169155       0.01932542       0.01571636
P        5.23153681       6.01453652      11.86636753       13       0.02428089       0.01735398      -0.05836775       0.01874680      -0.01960972      -0.00156598
P        4.02547258       6.01439752       5.35086611       14      -0.14031852       0.13678201       0.12025494      -0.01630174      -0.01006074      -0.03582452
P        2.14598377       2.00512953       7.68205955       15       0.15076952       0.12438991       0.00915220       0.01189984      -0.00464600       0.01554603
S        5.08977295       2.00466435       1.30529442       16      -0.00754955       0.03936954      -0.18539473      -0.25546610       0.00514668       0.01937997
S        1.08214326       6.01354615      11.72780936       17      -0.02884626      -0.15058052       0.12673760       0.25854477       0.00273099      -0.01863930
S        2.00299716       6.01357960       5.21049655       18      -0.21556650      -0.02784222      -0.06127669      -0.25219700       0.00268219      -0.01664271
S        4.16848771       2.00396127       7.82227455       19       0.00748383      -0.01107581       0.10013878       0.25512269      -0.00128155       0.01646324
S        1.68060607       2.00353229      12.25955843       20      -0.20476990      -0.15127938      -0.07901348       0.11407092       0.00953837      -0.16443901
S        4.49062304       6.01352688       0.77401779       21       0.02722036      -0.19801543       0.19773276      -0.10256545       0.00817958       0.15801917
S        4.76630353       6.01389894       7.28967720       22      -0.19481671       0.09071003       0.09339574       0.10919476       0.00257844       0.17398480
S        1.40455139       2.00529530       5.74252754       23       0.12086050       0.25919249      -0.15937285      -0.10658306      -0.00062312      -0.16155480
S        1.67201263       0.29288319       2.00402261       24       0.04811427      -0.24972283      -0.30934249       0.14811127      -0.22106996       0.09895673
S        4.49915389       7.72442088      11.02740593       25      -0.12376411      -0.23194069      -0.09950160      -0.14086393       0.23102391      -0.09303131
S        4.75869369       7.72489020       4.51060698       26       0.13783204      -0.08389930      -0.09610748       0.13440824       0.21841410      -0.08186366
S        1.41300890       0.29335681       8.52070505       27      -0.03511310       0.13920958      -0.14508630      -0.13773902      -0.21129704       0.09325770
S        4.50015366       4.30201695      11.02801894       28       0.11237880      -0.13292189       0.06993142      -0.14442214      -0.21314956      -0.09004451
S        1.67230813       3.71724796       2.00553461       29       0.05252545       0.18133336      -0.01769875       0.13572533       0.20023446       0.08099093
S        1.41415513       3.71689142       8.52098541       30       0.00269772       0.11602238      -0.05939541      -0.13836366       0.21430406       0.08982187
S        4.75873255       4.30271495       4.51136330       31       0.19867273       0.05157331      -0.07024347       0.13298778      -0.21005331      -0.08164598
32
Lattice="6.17176593 0.0 0.0 0.0 8.01859859 0.0 0.0 0.0 13.03281824" Properties=species:S:1:pos:R:3:spacegroup_kinds:I:1:momenta:R:3:forces:R:3 spacegroup="P 1" unit_cell=conventional occupancy="_JSON {\"0\": {\"Li\": 1}, \"1\": {\"Li\": 1}, \"2\": {\"Li\": 1}, \"3\": {\"Li\": 1}, \"4\": {\"Li\": 1}, \"5\": {\"Li\": 1}, \"6\": {\"Li\": 1}, \"7\": {\"Li\": 1}, \"8\": {\"Li\": 1}, \"9\": {\"Li\": 1}, \"10\": {\"Li\": 1}, \"11\": {\"Li\": 1}, \"12\": {\"P\": 1}, \"13\": {\"P\": 1}, \"14\": {\"P\": 1}, \"15\": {\"P\": 1}, \"16\": {\"S\": 1}, \"17\": {\"S\": 1}, \"18\": {\"S\": 1}, \"19\": {\"S\": 1}, \"20\": {\"S\": 1}, \"21\": {\"S\": 1}, \"22\": {\"S\": 1}, \"23\": {\"S\": 1}, \"24\": {\"S\": 1}, \"25\": {\"S\": 1}, \"26\": {\"S\": 1}, \"27\": {\"S\": 1}, \"28\": {\"S\": 1}, \"29\": {\"S\": 1}, \"30\": {\"S\": 1}, \"31\": {\"S\": 1}}" energy=-140.3196563720703 free_energy=-140.3196563720703 stress="-0.0071580796502530575 2.2335256289807148e-05 -3.64832180821395e-06 2.2335256289807148e-05 -0.008062776178121567 0.0001890096318675205 -3.64832180821395e-06 0.0001890096318675205 -0.005033866036683321" pbc="T T T"
Li       2.40163074       0.26647048       4.33182166        0      -0.06550994      -0.06168099      -0.18218521      -0.02211095       0.01058657      -0.00338490
Li       3.76741885       7.74805245       8.70048206        1       0.01686464      -0.05715727       0.04071430       0.01994674      -0.00529036       0.00145357
Li       5.49666227       7.75968286       2.18810405        2       0.14236328       0.15570082       0.10156258      -0.05120480      -0.03265336      -0.00860116
Li       0.68919594       0.27362310      10.85793135        3       0.17162264       0.18049375       0.09176394       0.00918858      -0.01340867      -0.02022356
Li       3.77307009       4.26907151       8.69464456        4       0.05206470      -0.21467086      -0.12232977       0.01949543       0.02434282       0.01741250
Li       2.40172744       3.73864876       4.33188286        5      -0.05095385      -0.03089085      -0.07399152      -0.01593718       0.00225674      -0.00093403
Li       0.68134990       3.74140844      10.85270570        6      -0.04259933       0.03097438       0.19899857       0.03306783      -0.00767521      -0.00665786
Li       5.48907512       4.28096578       2.18834942        7      -0.06558670       0.06101703       0.06663002      -0.02236661       0.00307460      -0.00528989
Li       3.08675076      -0.00579431       0.00052054        8       0.06649719      -0.20896382      -0.07656101      -0.00159691       0.00293707      -0.00214060
Li       0.00283920       0.00184600       6.51734594        9       0.08758825       0.00646188      -0.01658636      -0.00288679      -0.00226944      -0.00684968
Li       3.09219510       4.00996893       0.00280447       10       0.17956936       0.01333499      -0.02832566      -0.00704438      -0.00673170       0.00102861
Li      -0.00578598       4.01092382       6.52252005       11      -0.11832251      -0.05009413       0.12554870       0.00800344      -0.00799707      -0.01134910
P        0.93914935       2.00255775       1.16722605       12      -0.13982683      -0.22581991       0.20253139       0.01593950       0.07088549      -0.00191329
P        5.23161030       6.01442919      11.86498886       13      -0.05467792       0.00129480      -0.21208824       0.01810736      -0.03896250       0.02678557
P        4.02386713       6.01576481       5.35192435       14      -0.21975935       0.22994077       0.13633132       0.00212866      -0.04283370      -0.05305886
P        2.14834032       2.00636729       7.68307206       15       0.44771232       0.07211220       0.22349511      -0.06751141      -0.00362047      -0.01868946
S        5.08956145       2.00563889       1.30433273       16      -0.03120664       0.10481761      -0.12242689      -0.26779300      -0.00075438       0.02691451
S        1.08232789       6.01252899      11.72949074       17      -0.04243300      -0.15681046       0.26114663       0.25467899       0.01210514      -0.02505721
S        2.00106244       6.01479713       5.21025079       18      -0.22538090       0.27476607      -0.00783891      -0.23291747      -0.00331562      -0.01664878
S        4.16773458       2.00393796       7.82237510       19      -0.18786657      -0.06624212      -0.19772616       0.29952300      -0.00885928       0.01973481
S        1.67956788       2.00314777      12.25917212       20      -0.12953464      -0.01779847      -0.17056259       0.11917815       0.01294259      -0.14305292
S        4.49137694       6.01296448       0.77501664       21       0.10642820      -0.00271680       0.27426577      -0.09443633       0.01756721       0.13904986
S        4.76508765       6.01443890       7.29117235       22      -0.14438779       0.05262991       0.29144982       0.10434917       0.00084323       0.16548552
S        1.40564392       2.00600943       5.74065969       23       0.24129068      -0.11802386      -0.24129964      -0.09653917      -0.00168977      -0.12525226
S        1.67198623       0.28976741       2.00048082       24      -0.05953077      -0.57242822      -0.64110839       0.15238351      -0.21374935       0.11270634
S        4.49772696       7.72290965      11.02675939       25      -0.33531522      -0.19029852       0.02486637      -0.13233194       0.24229908      -0.09686039
S        4.75978559       7.72496172       4.51103470       26       0.16183939       0.19797477       0.09702610       0.12576570       0.21956101      -0.07509547
S        1.41136562       0.29440048       8.51975543       27      -0.24382437       0.07386076       0.03057378      -0.12489177      -0.20175889       0.10042989
S        4.50074705       4.30060229      11.02737812       28       0.03209016      -0.19142543      -0.13820908      -0.14297459      -0.20475620      -0.08961643
S        1.67177654       3.71912051       2.00514274       29      -0.08971411       0.36153378      -0.05502112       0.12332048       0.15510850       0.06622414
S        1.41366788       3.71861026       8.52121616       30      -0.02957307       0.30393186       0.17945062      -0.12370872       0.19868885       0.08738799
S        4.76162555       4.30294572       4.51114261       31       0.57007274       0.04417633      -0.06009450       0.10117543      -0.17687301      -0.05393714
32
Lattice="6.17176593 0.0 0.0 0.0 8.01859859 0.0 0.0 0.0 13.03281824" Properties=species:S:1:pos:R:3:spacegroup_kinds:I:1:momenta:R:3:forces:R:3 spacegroup="P 1" unit_cell=conventional occupancy="_JSON {\"0\": {\"Li\": 1}, \"1\": {\"Li\": 1}, \"2\": {\"Li\": 1}, \"3\": {\"Li\": 1}, \"4\": {\"Li\": 1}, \"5\": {\"Li\": 1}, \"6\": {\"Li\": 1}, \"7\": {\"Li\": 1}, \"8\": {\"Li\": 1}, \"9\": {\"Li\": 1}, \"10\": {\"Li\": 1}, \"11\": {\"Li\": 1}, \"12\": {\"P\": 1}, \"13\": {\"P\": 1}, \"14\": {\"P\": 1}, \"15\": {\"P\": 1}, \"16\": {\"S\": 1}, \"17\": {\"S\": 1}, \"18\": {\"S\": 1}, \"19\": {\"S\": 1}, \"20\": {\"S\": 1}, \"21\": {\"S\": 1}, \"22\": {\"S\": 1}, \"23\": {\"S\": 1}, \"24\": {\"S\": 1}, \"25\": {\"S\": 1}, \"26\": {\"S\": 1}, \"27\": {\"S\": 1}, \"28\": {\"S\": 1}, \"29\": {\"S\": 1}, \"30\": {\"S\": 1}, \"31\": {\"S\": 1}}" energy=-140.31919860839844 free_energy=-140.31919860839844 stress="-0.007200431078672409 -2.369127116708114e-07 -3.516748620313592e-05 -2.369127116708114e-07 -0.007723094429820776 0.00031951640266925097 -3.516748620313592e-05 0.00031951640266925097 -0.004691378213465214" pbc="T T T"
Li       2.39859091       0.26299326       4.32684087        0      -0.07331981      -0.18316064      -0.08893315      -0.01726998       0.02001202       0.00122502
Li       3.76799336       7.74487180       8.70181756        1       0.04532085      -0.07435299       0.04908040       0.01303045      -0.00357785       0.00010140
Li       5.49922808       7.76589627       2.19244531        2       0.03441534       0.18249541       0.13901040      -0.06309915      -0.04712785      -0.01602293
Li       0.69424033       0.27934482      10.86109754        3       0.06764022       0.11181823       0.13660273      -0.00389056      -0.02945032      -0.02605380
Li       3.77397762       4.26183331       8.68864489        4       0.00614441      -0.22163784      -0.14831531       0.01715563       0.04247251       0.03056731
Li       2.39864518       3.73694871       4.33002877        5      -0.12343740      -0.05500894       0.00059466      -0.00496719       0.00859888       0.00199518
Li       0.67859107       3.74307070      10.85968352        6      -0.09125689      -0.00942005       0.15952678       0.04447248      -0.01474512      -0.01688979
Li       5.48445855       4.28123505       2.19261163        7      -0.14887493      -0.03655010       0.15375555      -0.01136393       0.00338220      -0.01391860
Li       3.09008680      -0.01480189      -0.00103699        8       0.12487127      -0.30071657      -0.03840739      -0.01328426       0.01588098       0.00028837
Li       0.00356172       0.00253469       6.51836969        9      -0.06063764       0.05484822       0.07622798      -0.00135416      -0.00296373      -0.00982720
Li       3.09998271       4.01215348       0.00063464       10       0.18326276       0.02277429      -0.07137615      -0.02393300      -0.01852762       0.01471562
Li      -0.01046586       4.00787261       6.52797278       11      -0.13307245      -0.13290602       0.15769891       0.01187633      -0.01066690      -0.01899412
P        0.93742842       2.00029883       1.17001437       12      -0.22963831      -0.15132610       0.31002684       0.04373277       0.14773202      -0.05722906
P        5.23227651       6.01364420      11.86261159       13       0.15970340      -0.35731231      -0.37608350       0.00543670      -0.03444199       0.07089381
P        4.02141337       6.01709431       5.35267486       14      -0.30741174       0.10958134       0.01062441       0.05547165      -0.06003510      -0.06182101
P        2.15206450       2.00675457       7.68400469       15       0.49877865      -0.02793350       0.03081038      -0.19311339       0.00442832      -0.04334219
S        5.08735003       2.00698374       1.30313847       16      -0.50591850       0.24941207      -0.08891600      -0.25375685      -0.00847679       0.03579886
S        1.08237465       6.01105717      11.73190635       17       0.00423047      -0.13412143       0.28380989       0.25855356       0.02576529      -0.03597053
S        1.99989223       6.01747679       5.20974366       18      -0.19764564       0.24178667      -0.14407961      -0.23237723      -0.01864887      -0.01680008
S        4.16604183       2.00346116       7.82105586       19      -0.23836503       0.00242479      -0.22039698       0.38162524      -0.01789062       0.02678664
S        1.67880611       2.00350647      12.25894187       20      -0.01565164       0.31151953      -0.00414261       0.11726239       0.01586425      -0.10224162
S        4.49315887       6.01393039       0.77672017       21       0.34206148       0.31527869       0.21945103      -0.08508135       0.01782820       0.10411894
S        4.76455482       6.01421296       7.29357169       22       0.03038494      -0.06125583       0.39793561       0.09266542      -0.00121212       0.13732277
S        1.40681185       2.00537613       5.73936574       23      -0.04764614      -0.08059509      -0.22016668      -0.08838292       0.00033699      -0.09421855
S        1.67211521       0.28675206       1.99531010       24       0.01891948      -0.27462904      -0.71533822       0.15490375      -0.22309622       0.13686471
S        4.49571469       7.72202545      11.02648820       25      -0.20331158      -0.09965032      -0.08565022      -0.11312983       0.23922299      -0.10122322
S        4.76020145       7.72670555       4.51150916       26       0.12779570       0.18087230      -0.05787677       0.11108387       0.20427185      -0.06007140
S        1.41079568       0.29421325       8.51908134       27      -0.08490504      -0.07638781      -0.04120846      -0.11039104      -0.18675119       0.10264427
S        4.50172005       4.29902320      11.02622021       28       0.21845614      -0.16113952      -0.09017555      -0.14758617      -0.19647838      -0.09540287
S        1.67147118       3.72171648       2.00507569       29       0.01694765       0.43929495       0.04550206       0.10252091       0.10341137       0.04902113
S        1.41348103       3.72023723       8.52241847       30       0.01840745       0.18103287       0.17804456      -0.10717651       0.16634595       0.07908569
S        4.76565922       4.30362597       4.51078006       31       0.56375254       0.03496473       0.04236444       0.06036632      -0.14146319      -0.02140269
32
Lattice="6.17176593 0.0 0.0 0.0 8.01859859 0.0 0.0 0.0 13.03281824" Properties=species:S:1:pos:R:3:spacegroup_kinds:I:1:momenta:R:3:forces:R:3 spacegroup="P 1" unit_cell=conventional occupancy="_JSON {\"0\": {\"Li\": 1}, \"1\": {\"Li\": 1}, \"2\": {\"Li\": 1}, \"3\": {\"Li\": 1}, \"4\": {\"Li\": 1}, \"5\": {\"Li\": 1}, \"6\": {\"Li\": 1}, \"7\": {\"Li\": 1}, \"8\": {\"Li\": 1}, \"9\": {\"Li\": 1}, \"10\": {\"Li\": 1}, \"11\": {\"Li\": 1}, \"12\": {\"P\": 1}, \"13\": {\"P\": 1}, \"14\": {\"P\": 1}, \"15\": {\"P\": 1}, \"16\": {\"S\": 1}, \"17\": {\"S\": 1}, \"18\": {\"S\": 1}, \"19\": {\"S\": 1}, \"20\": {\"S\": 1}, \"21\": {\"S\": 1}, \"22\": {\"S\": 1}, \"23\": {\"S\": 1}, \"24\": {\"S\": 1}, \"25\": {\"S\": 1}, \"26\": {\"S\": 1}, \"27\": {\"S\": 1}, \"28\": {\"S\": 1}, \"29\": {\"S\": 1}, \"30\": {\"S\": 1}, \"31\": {\"S\": 1}}" energy=-140.3164520263672 free_energy=-140.3164520263672 stress="-0.007155036553740501 -7.359931623796001e-05 -4.7027999244164675e-05 -7.359931623796001e-05 -0.0072952089831233025 0.000329171511111781 -4.7027999244164675e-05 0.000329171511111781 -0.004150663036853075" pbc="T T T"
Li       2.39962241       0.25662386       4.32358225        0       0.11517199      -0.25351792      -0.17757083      -0.02521322       0.03612221       0.00331546
Li       3.77122252       7.74346509       8.70169550        1       0.11296248      -0.07758053      -0.07593964       0.00115808      -0.00653917       0.00475182
Li       5.49940108       7.77395389       2.19800648        2      -0.06641327       0.22386972       0.21278109      -0.06608787      -0.06188477      -0.02942272
Li       0.69590901       0.28374213      10.86670565        3      -0.00194361       0.17317696       0.15313058      -0.00780798      -0.03911164      -0.03428024
Li       3.77227008       4.25593271       8.68490268        4      -0.06541288      -0.11560790      -0.15109467       0.01658582       0.06282410       0.03708321
Li       2.39634443       3.73521478       4.32918819        5      -0.05446800      -0.03484852      -0.02586736       0.00415812       0.01017473       0.00230454
Li       0.67575172       3.74421768      10.86465368        6      -0.10664282       0.06426680       0.15231635       0.05897399      -0.01753243      -0.02414548
Li       5.47925243       4.27941141       2.19683439        7      -0.14509476       0.01431090       0.06913065      -0.00135313       0.00910658      -0.02180668
Li       3.09273494      -0.02454275      -0.00156134        8       0.15506410      -0.20185333      -0.01752115      -0.02399892       0.03006939      -0.00095518
Li      -0.00121995       0.00352154       6.52269734        9      -0.16312115       0.03605317       0.13178546       0.00785867      -0.00005108      -0.01192515
Li       3.10790724       4.01567308      -0.00191488       10       0.22651731       0.06923364      -0.08495974      -0.04518039      -0.02960659       0.03350486
Li      -0.01628773       4.00357359       6.53303575       11      -0.19839231      -0.05690683       0.10501566       0.01769540      -0.01285417      -0.02346809
P        0.93487479       1.99918315       1.17306871       12      -0.37462078      -0.14365780       0.44309246       0.06785663       0.19364499      -0.11506901
P        5.23169418       6.01034065      11.85925498       13      -0.17753482      -0.40574574      -0.39802765       0.03654470       0.04791648       0.13163909
P        4.01906464       6.01901360       5.35216133       14      -0.23637681       0.29577115      -0.10794046       0.11590298      -0.10161622      -0.04018284
P        2.15747345       2.00636340       7.68389483       15       0.85137279      -0.03690711      -0.05945989      -0.38800189       0.00243915      -0.06028263
S        5.08256884       2.00844292       1.30298285       16      -0.69972505       0.16602557       0.04048160      -0.21062219      -0.01443951       0.03978959
S        1.08343864       6.01123969      11.73437330       17       0.20788593       0.19232027       0.37923991       0.23014520       0.02300425      -0.04938694
S        1.99900393       6.01734440       5.20851430       18      -0.12328404      -0.10303706      -0.26025890      -0.22753315      -0.02158434      -0.01548797