32
Lattice="6.17176593 0.0 0.0 0.0 8.01859859 0.0 0.0 0.0 13.03281824" Properties=species:S:1:pos:R:3:spacegroup_kinds:I:1:forces:R:3 spacegroup="P 1" unit_cell=conventional occupancy="_JSON {\"0\": {\"Li\": 1}, \"1\": {\"Li\": 1}, \"2\": {\"Li\": 1}, \"3\": {\"Li\": 1}, \"4\": {\"Li\": 1}, \"5\": {\"Li\": 1}, \"6\": {\"Li\": 1}, \"7\": {\"Li\": 1}, \"8\": {\"Li\": 1}, \"9\": {\"Li\": 1}, \"10\": {\"Li\": 1}, \"11\": {\"Li\": 1}, \"12\": {\"P\": 1}, \"13\": {\"P\": 1}, \"14\": {\"P\": 1}, \"15\": {\"P\": 1}, \"16\": {\"S\": 1}, \"17\": {\"S\": 1}, \"18\": {\"S\": 1}, \"19\": {\"S\": 1}, \"20\": {\"S\": 1}, \"21\": {\"S\": 1}, \"22\": {\"S\": 1}, \"23\": {\"S\": 1}, \"24\": {\"S\": 1}, \"25\": {\"S\": 1}, \"26\": {\"S\": 1}, \"27\": {\"S\": 1}, \"28\": {\"S\": 1}, \"29\": {\"S\": 1}, \"30\": {\"S\": 1}, \"31\": {\"S\": 1}}" energy=-140.31869506835938 free_energy=-140.31869506835938 stress="-0.007170621771365404 -8.11929545818657e-09 3.6070015863032268e-09 -8.11929545818657e-09 -0.008259412832558155 -1.0443143239058372e-08 3.6070015863032268e-09 -1.0443143239058372e-08 -0.005266297608613968" pbc="T T T"
Li       2.40329652       0.26860172       4.33400832        0      -0.02603557       0.00549132      -0.00432166
Li       3.76846941       7.74999687       8.69880992        1       0.02603647      -0.00549172       0.00432319
Li       5.48917948       7.74999687       2.18240080        2      -0.02603600      -0.00549099       0.00432296
Li       0.68258645       0.26860172      10.85041744        3       0.02603545       0.00549212      -0.00431930
Li       3.76846941       4.27790102       8.69880992        4       0.02603616       0.00549110       0.00432252
Li       2.40329652       3.74069757       4.33400832        5      -0.02603624      -0.00549181      -0.00432155
Li       0.68258645       3.74069757      10.85041744        6       0.02603619      -0.00549181      -0.00431986
Li       5.48917948       4.27790102       2.18240080        7      -0.02603570       0.00549031       0.00432269
Li       3.08588297       0.00000000       0.00000000        8      -0.00000024      -0.00000081      -0.00000089
Li       0.00000000       0.00000000       6.51640912        9      -0.00000038       0.00000072      -0.00000001
Li       3.08588297       4.00929929       0.00000000       10       0.00000026       0.00000136       0.00000036
Li       0.00000000       4.00929929       6.51640912       11       0.00000036       0.00000027      -0.00000004
P        0.94051010       2.00464965       1.16601784       12      -0.02067206      -0.00000009       0.02376162
P        5.23125583       6.01394894      11.86680040       13       0.02066632       0.00000042      -0.02375890
P        4.02639307       6.01394894       5.35039128       14      -0.02066760       0.00000006      -0.02375512
P        2.14537286       2.00464965       7.68242696       15       0.02066813       0.00000041       0.02375755
S        5.08970823       2.00464965       1.30575389       16      -0.25450501       0.00000026       0.01679078
S        1.08205770       6.01394894      11.72706435       17       0.25450814      -0.00000082      -0.01679251
S        2.00382526       6.01394894       5.21065523       18      -0.25450632      -0.00000115      -0.01679235
S        4.16794067       2.00464965       7.82216301       19       0.25450113       0.00000012       0.01678931
S        1.68132889       2.00464965      12.25955363       20       0.10912241       0.00000010      -0.16719598
S        4.49043704       6.01394894       0.77326461       21      -0.10912043       0.00000030       0.16718145
S        4.76721186       6.01394894       7.28967373       22       0.10912082      -0.00000006       0.16717923
S        1.40455407       2.00464965       5.74314451       23      -0.10911943       0.00000039      -0.16718121
S        1.67233151       0.29287049       2.00524453       24       0.13957819      -0.21272604       0.08709847
S        4.49943442       7.72572810      11.02757371       25      -0.13957627       0.21272516      -0.08709252
S        4.75821447       7.72572810       4.51116459       26       0.13957512       0.21272522      -0.08709228
S        1.41355146       0.29287049       8.52165365       27      -0.13957547      -0.21272045       0.08709110
S        4.49943442       4.30216979      11.02757371       28      -0.13957793      -0.21272577      -0.08709371
S        1.67233151       3.71642880       2.00524453       29       0.13957869       0.21272676       0.08709879
S        1.41355146       3.71642880       8.52165365       30      -0.13957547       0.21272065       0.08709133
S        4.75821447       4.30216979       4.51116459       31       0.13957614      -0.21272555      -0.08709356
