56
Lattice="10.7619164 0.0 0.0 -9.665296305262016 4.732958053065482 0.0 -0.5483100463354086 -2.3664790220718444 10.484177494289693" Properties=species:S:1:pos:R:3:spacegroup_kinds:I:1:forces:R:3 spacegroup="P 1" unit_cell=conventional occupancy="_JSON {\"0\": {\"H\": 1}, \"1\": {\"H\": 1}, \"2\": {\"H\": 1}, \"3\": {\"H\": 1}, \"4\": {\"H\": 1}, \"5\": {\"H\": 1}, \"6\": {\"H\": 1}, \"7\": {\"H\": 1}, \"8\": {\"H\": 1}, \"9\": {\"H\": 1}, \"10\": {\"H\": 1}, \"11\": {\"H\": 1}, \"12\": {\"H\": 1}, \"13\": {\"H\": 1}, \"14\": {\"H\": 1}, \"15\": {\"H\": 1}, \"16\": {\"H\": 1}, \"17\": {\"H\": 1}, \"18\": {\"H\": 1}, \"19\": {\"H\": 1}, \"20\": {\"H\": 1}, \"21\": {\"H\": 1}, \"22\": {\"H\": 1}, \"23\": {\"H\": 1}, \"24\": {\"H\": 1}, \"25\": {\"H\": 1}, \"26\": {\"H\": 1}, \"27\": {\"H\": 1}, \"28\": {\"H\": 1}, \"29\": {\"H\": 1}, \"30\": {\"H\": 1}, \"31\": {\"H\": 1}, \"32\": {\"C\": 1}, \"33\": {\"C\": 1}, \"34\": {\"C\": 1}, \"35\": {\"C\": 1}, \"36\": {\"C\": 1}, \"37\": {\"C\": 1}, \"38\": {\"C\": 1}, \"39\": {\"C\": 1}, \"40\": {\"C\": 1}, \"41\": {\"C\": 1}, \"42\": {\"C\": 1}, \"43\": {\"C\": 1}, \"44\": {\"C\": 1}, \"45\": {\"C\": 1}, \"46\": {\"C\": 1}, \"47\": {\"C\": 1}, \"48\": {\"O\": 1}, \"49\": {\"O\": 1}, \"50\": {\"O\": 1}, \"51\": {\"O\": 1}, \"52\": {\"O\": 1}, \"53\": {\"O\": 1}, \"54\": {\"O\": 1}, \"55\": {\"O\": 1}}" energy=-315.21038818359375 free_energy=-315.21038818359375 stress="0.0014446323039010167 -0.0005629165098071098 9.816560719855261e-08 -0.0005629165098071098 -0.0008545304299332201 -6.501588245555467e-08 9.816560719855261e-08 -6.501588245555467e-08 0.0015756197972223163" pbc="T T T"
H       -0.01146673       2.27735379       1.83228363        0       0.05954388      -0.00327659       0.06233874
H        0.46354042      -0.32622644       8.65189389        1      -0.05491693       0.02317577      -0.06235541
H        7.11783644      -0.62125595       5.76730111        2       0.06303625      -0.00415092      -0.05874561
H        3.54784284       0.20590514       4.71687608        3      -0.05845494       0.02398693       0.05874116
H        5.94073499       0.08912525       3.40980510        4      -0.05953892       0.00327700      -0.06233647
H        4.91741779       0.32622654       7.07437241        5       0.05491422      -0.02316905       0.06236494
H       -1.73687825       0.62125612       9.95896514        6      -0.06303775       0.00415859       0.05874470
H        2.38142538       2.16057389       0.52521269        7       0.05845518      -0.02398840      -0.05874395
H       -1.38551755       1.18149075       2.11598469        8      -0.01113785       0.08955154       0.00594912
H       -8.44966010       2.81824229       8.36819218        9       0.04931279       0.07553670      -0.00592625
H       -2.58205883       2.70548917       6.85853646       10       0.02489155       0.08117931       0.03102877
H       -6.70482302       3.66072964       3.62563947       11       0.01337862       0.08383609      -0.03101338
H       -3.44713062       1.18498829       3.12610407       12       0.01115897      -0.08955060      -0.00594420
H       -6.59659444       1.91471577       7.35807407       13      -0.04930675      -0.07554594       0.00593401
H       -1.70227922       2.02746897       8.86772962       14      -0.02490165      -0.08118912      -0.03099539
H       -7.79312147       3.43870743       1.61644926       15      -0.01337433      -0.08383957       0.03100575
H       -0.77623955       0.71965044       4.36329759       16      -0.01323417      -0.01213569       0.02308603
H        1.56195590       2.67141835       6.12088029       17       0.00653426      -0.01672816      -0.02309684
H       -0.46326719       1.89389614       6.16073603       18       0.01919691      -0.01968186       0.01018702
H        0.70065483      -0.86930480       4.32344242       19      -0.02582996      -0.00920581      -0.01018463
H        6.70550784       1.64682867       0.87879113       20       0.01323272       0.01213447      -0.02308444
H       -5.84629403       2.06153965       9.60538593       21      -0.00653633       0.01672641       0.02309484
H        5.84422537      -1.89389611       9.56553024       22      -0.01918947       0.01966866      -0.01017742
H       -5.53330301       3.23578383       0.91864627       23       0.02584074       0.00921548       0.01018943
H        0.25118891       0.51320652       1.94904363       24      -0.01400545      -0.01703832      -0.02868834
H       -0.54820846      -1.79509607       8.53513266       25       0.00518229      -0.02145623       0.02868156
H       -2.80824660       2.46883415       5.11321221       26      -0.03240755      -0.01272126       0.00990966
H       -6.60574339       3.34870703       5.37096441       27       0.02347667      -0.02566453      -0.00992777
H       -5.08383701       1.85327246       3.29304511       28       0.01400416       0.01703794       0.02868883
H       -4.83274948       1.79509621       7.19113351       29      -0.00520931       0.02144493      -0.02866532
H       -0.92778153       4.63060280       0.12887635       30       0.03240965       0.01272195      -0.00991039
H        2.32140525       1.38425107      10.35530180       31      -0.02347635       0.02567147       0.00991851
C       -0.12855713       1.44666454       3.84724415       32      -0.06474288      -0.02297603       0.02711117
C        0.20337421      -1.12376649       6.63693321       33       0.04808291      -0.04911488      -0.02705976
C       -0.77313051       2.84277399       5.69386796       34       0.01803392      -0.04222311       0.05795779
C        1.39625479      -0.15339357       4.79030936       35      -0.03474376      -0.02990973      -0.05791896
C        6.05782527       0.91981442       1.39484461       36       0.06475959       0.02297415      -0.02710631
C       -5.58433219       1.12376665       9.08933301       37      -0.04809031       0.04911466       0.02707815
C       -3.51120741       1.89018400      10.03239815       38      -0.01807004       0.04223142      -0.05796638
C        4.53301350       2.51987247       0.45177955       39       0.03474641       0.02992344       0.05791010
C       -0.32629464       1.35816529       2.34320611       40       0.01374550       0.00373691      -0.01267581
C        0.34204072      -1.29021282       8.14097361       41      -0.01071762       0.00946873       0.01263642
C       -2.26788799       3.05478922       5.86652618       42      -0.01084453       0.00948893      -0.01263989
C        2.83194262      -0.62035932       4.61765398       43       0.01386465       0.00375754       0.01261367
C        6.25556282       1.00831378       2.89888264       44      -0.01376821      -0.00373727       0.01266721
C       -5.72299920       1.29021258       7.58529264       45       0.01074454      -0.00945184      -0.01267779
C       -2.01645026       1.67816876       9.85974052       46       0.01086679      -0.00949137       0.01260883
C        3.09732573       2.98683831       0.62443475       47      -0.01388463      -0.00375876      -0.01259666
O       -0.42617555       2.75832689       4.28195553       48      -0.00160937      -0.01560102      -0.00606919
O        1.04750942      -0.07664206       6.20222131       49      -0.00534995      -0.01474380       0.00606378
O       -1.17299329      -0.80891944       6.27987372       50      -0.00940058      -0.01381555      -0.00193577
O        1.24603231       1.12411994       4.20430306       51       0.00225577      -0.01656964       0.00193556
O       -3.30985251       4.34111018       0.96013317       52       0.00160900       0.01560229       0.00605919
O        4.33344871       0.07664207       9.52404499       53       0.00534897       0.01474200      -0.00606661
O       -4.20796492       0.80891948       9.44639258       54       0.00941879       0.01382565       0.00193596
O        4.68323598       1.24235916       1.03778561       55      -0.00226689       0.01654544      -0.00193164
