4
Lattice="3.128588 0.0 0.0 -1.5642939988088433 2.709436998432005 0.0 0.0 0.0 5.016955" Properties=species:S:1:pos:R:3:spacegroup_kinds:I:1:momenta:R:3:forces:R:3 spacegroup="P 1" unit_cell=conventional occupancy="_JSON {\"0\": {\"Al\": 1}, \"1\": {\"Al\": 1}, \"2\": {\"N\": 1}, \"3\": {\"N\": 1}}" energy=-29.623743057250977 free_energy=-29.623743057250977 stress="0.004300137981772423 -0.008672680705785751 0.0028819723520427942 -0.008672680705785751 -0.00694367615506053 -0.004434597212821245 0.0028819723520427942 -0.004434597212821245 -0.014839078299701214" pbc="T T T"
Al       1.54321208       0.89379622       2.53645984        0      -0.00705454      -0.41529043       0.79445040      -0.25250322       0.39302945      -0.87834448
Al       0.03580899       1.79893951       4.98957806        1       0.09337854      -0.29525165      -0.61192026      -0.16601191       0.14058293       0.62745309
N        1.59619752       0.90645093       4.40111844        2      -0.02189752       1.09350703       0.27120868      -0.08899736      -0.09593905       0.34911013
N       -0.05911261       1.83464208       1.91219260        3      -0.06442648      -0.38296495      -0.45373870       0.50751245      -0.43767327      -0.09821856
