4
Lattice="3.128588 0.0 0.0 -1.5642939988088433 2.709436998432005 0.0 0.0 0.0 5.016955" Properties=species:S:1:pos:R:3:spacegroup_kinds:I:1:momenta:R:3:forces:R:3 spacegroup="P 1" unit_cell=conventional occupancy="_JSON {\"0\": {\"Al\": 1}, \"1\": {\"Al\": 1}, \"2\": {\"N\": 1}, \"3\": {\"N\": 1}}" energy=-29.673717498779297 free_energy=-29.673717498779297 stress="-0.0022253289353102446 -1.4200591067492496e-06 -5.876847808394814e-08 -1.4200591067492496e-06 -0.0022275340743362904 -4.236537520796446e-08 -5.876847808394814e-08 -4.236537520796446e-08 -0.005453711375594139" pbc="T T T"
Al       1.56429556       0.90314476       2.50490041        0       0.68448204       0.53670047       0.91071479      -0.00003357       0.00002075       0.00553229
Al      -0.00000156       1.80629224       5.01337791        1       0.31075784       0.39520501      -1.87833745       0.00003579      -0.00001974       0.00552433
N        1.56429556       0.90314476       4.41849749        2      -0.23293981      -0.79739853      -0.40745139      -0.00003731       0.00002047      -0.00553070
N       -0.00000156       1.80629224       1.91001999        3      -0.76230006      -0.13450696       1.37507406       0.00003504      -0.00002152      -0.00552581
4
Lattice="3.128588 0.0 0.0 -1.5642939988088433 2.709436998432005 0.0 0.0 0.0 5.016955" Properties=species:S:1:pos:R:3:spacegroup_kinds:I:1:momenta:R:3:forces:R:3 spacegroup="P 1" unit_cell=conventional occupancy="_JSON {\"0\": {\"Al\": 1}, \"1\": {\"Al\": 1}, \"2\": {\"N\": 1}, \"3\": {\"N\": 1}}" energy=-29.433591842651367 free_energy=-29.433591842651367 stress="-0.013773472979664803 -0.016446448862552643 0.012948784977197647 -0.016446448862552643 -0.02396879531443119 0.009969722479581833 0.012948784977197647 0.009969722479581833 -0.012059448286890984" pbc="T T T"
Al       1.60246140       0.92231284       2.54150849        0       0.57498203      -0.13491971       1.02882475      -1.31301236      -0.49033299      -0.87831324
Al       0.00328788       1.81111139       4.94718775        1      -0.44725822       0.00118038      -1.07867317      -0.30154186      -0.59423292       1.18011796
N        1.53678588       0.85870780       4.38099594        2       0.14052047      -0.46066720       0.20203863       0.28490710       0.67984569       1.25553560
N       -0.05228244       1.80432670       2.00436659        3      -0.26824427       0.59440653      -0.15219024       1.32964718       0.40472010      -1.55734038
4
Lattice="3.128588 0.0 0.0 -1.5642939988088433 2.709436998432005 0.0 0.0 0.0 5.016955" Properties=species:S:1:pos:R:3:spacegroup_kinds:I:1:momenta:R:3:forces:R:3 spacegroup="P 1" unit_cell=conventional occupancy="_JSON {\"0\": {\"Al\": 1}, \"1\": {\"Al\": 1}, \"2\": {\"N\": 1}, \"3\": {\"N\": 1}}" energy=-29.567256927490234 free_energy=-29.567256927490234 stress="0.012915671803057194 0.001702501904219389 0.0035793667193502188 0.001702501904219389 -0.025857044383883476 -0.005369184538722038 0.0035793667193502188 -0.005369184538722038 -0.011435052379965782" pbc="T T T"
Al       1.59598185       0.90138486       2.55101265        0      -0.85003988      -0.64755189      -0.41676328      -0.33522537       0.74370402      -1.26921141
Al      -0.01311800       1.79082858       4.96769658        1      -0.24557032      -0.74327790       1.65595790      -0.18280163      -0.17026731       1.21499634
N        1.52960409       0.86779351       4.41996340        2       0.16413071       0.60763582       0.63654562       0.31887552       0.39321405      -0.09056908
N       -0.00060093       1.87475189       1.90756521        3       0.93147948       0.78319399      -1.87574030       0.19915149      -0.96665084       0.14478388
4
Lattice="3.128588 0.0 0.0 -1.5642939988088433 2.709436998432005 0.0 0.0 0.0 5.016955" Properties=species:S:1:pos:R:3:spacegroup_kinds:I:1:momenta:R:3:forces:R:3 spacegroup="P 1" unit_cell=conventional occupancy="_JSON {\"0\": {\"Al\": 1}, \"1\": {\"Al\": 1}, \"2\": {\"N\": 1}, \"3\": {\"N\": 1}}" energy=-29.406274795532227 free_energy=-29.406274795532227 stress="0.01068881805986166 0.016498105600476265 -0.00816397089511156 0.016498105600476265 -0.009423257783055305 -0.015553943812847137 -0.00816397089511156 -0.015553943812847137 -0.061254072934389114" pbc="T T T"
Al       1.53423928       0.87298461       2.51007451        0      -1.60925378       0.09619208      -1.03262315       0.74608684       1.00298703       0.03482303
Al      -0.01349004       1.78470221       5.05709165        1       0.21561239      -0.04339764       1.72443271       0.02271272       0.40732911      -1.66436934
N        1.55208974       0.92225132       4.42203507        2       0.38659367       0.63935777      -0.93002897       0.04495744      -0.39009666      -0.56986105
N        0.09667400       1.88681817       1.81230440        3       1.00704775      -0.69215223       0.23821933      -0.81375694      -1.02021933       2.19940710
4
Lattice="3.128588 0.0 0.0 -1.5642939988088433 2.709436998432005 0.0 0.0 0.0 5.016955" Properties=species:S:1:pos:R:3:spacegroup_kinds:I:1:momenta:R:3:forces:R:3 spacegroup="P 1" unit_cell=conventional occupancy="_JSON {\"0\": {\"Al\": 1}, \"1\": {\"Al\": 1}, \"2\": {\"N\": 1}, \"3\": {\"N\": 1}}" energy=-29.201906204223633 free_energy=-29.201906204223633 stress="-0.02644091658294201 0.03815533220767975 -0.031382691115140915 0.03815533220767975 -0.004877268336713314 0.0015437864931300282 -0.031382691115140915 0.0015437864931300282 -0.051819831132888794" pbc="T T T"
Al       1.49382402       0.87740193       2.48150488        0      -0.08661615      -0.02748818       0.25595550       2.48428297      -0.46186876       1.22611856
Al      -0.02076737       1.79337852       5.08843295        1       0.00716744       0.60209065      -1.27068268       0.64723200       0.57433414      -2.36004162
N        1.60157219       0.96971682       4.33361322        2       0.49437250       0.53651022      -0.17473350      -0.53882444      -0.70145273       1.74608970
N        0.13924911       1.81421453       1.89535165        3      -0.41492374      -1.11111271       1.18946065      -2.59269047       0.58898705      -0.61216629
4
Lattice="3.128588 0.0 0.0 -1.5642939988088433 2.709436998432005 0.0 0.0 0.0 5.016955" Properties=species:S:1:pos:R:3:spacegroup_kinds:I:1:momenta:R:3:forces:R:3 spacegroup="P 1" unit_cell=conventional occupancy="_JSON {\"0\": {\"Al\": 1}, \"1\": {\"Al\": 1}, \"2\": {\"N\": 1}, \"3\": {\"N\": 1}}" energy=-29.574628829956055 free_energy=-29.574628829956055 stress="-0.023617686703801155 -0.014321165159344673 -0.01112786028534174 -0.014321165159344673 0.01502996776252985 -0.00285466481000185 -0.01112786028534174 -0.00285466481000185 -0.014440187253057957" pbc="T T T"
Al       1.53421963       0.88369269       2.53780581        0       1.55944059       0.36820844       1.55971037       0.29264587      -0.24000522      -0.91367573
Al      -0.00048008       1.82107764       4.98837342        1       1.01688528       0.86374257      -2.47525480       0.94369113       0.52251369       0.78486103
N        1.63583964       0.96584648       4.40663185        2      -0.31021868      -0.52489264       1.27117366      -1.15103281      -0.78906918       0.05687980
N       -0.01177519       1.75252283       1.90648728        3      -2.26610719      -0.70705842      -0.35562929      -0.08530446       0.50656080       0.07193489
4
Lattice="3.128588 0.0 0.0 -1.5642939988088433 2.709436998432005 0.0 0.0 0.0 5.016955" Properties=species:S:1:pos:R:3:spacegroup_kinds:I:1:momenta:R:3:forces:R:3 spacegroup="P 1" unit_cell=conventional occupancy="_JSON {\"0\": {\"Al\": 1}, \"1\": {\"Al\": 1}, \"2\": {\"N\": 1}, \"3\": {\"N\": 1}}" energy=-29.372068405151367 free_energy=-29.372068405151367 stress="-0.005629516672343016 -0.018719522282481194 0.015849435701966286 -0.018719522282481194 -0.032272495329380035 0.01721213571727276 0.015849435701966286 0.01721213571727276 -0.007298463489860296" pbc="T T T"
Al       1.57072837       0.88046441       2.56331975        0      -0.00039226      -0.37629501      -0.57844092      -1.34386516      -0.44065839      -1.50707746
Al       0.05055069       1.86456078       4.94968568        1       0.52726996       0.77034132       1.04960187      -0.49128726      -1.36433411       1.82584667
N        1.58204800       0.88176662       4.44992390        2      -0.27832225      -1.02263349      -0.55459284       0.15003422       1.16375637      -0.85894626
N       -0.12661085       1.75915458       1.88869868        3      -0.24855539       0.62858718       0.08343184       1.68511832       0.64123607       0.54017746
4
Lattice="3.128588 0.0 0.0 -1.5642939988088433 2.709436998432005 0.0 0.0 0.0 5.016955" Properties=species:S:1:pos:R:3:spacegroup_kinds:I:1:momenta:R:3:forces:R:3 spacegroup="P 1" unit_cell=conventional occupancy="_JSON {\"0\": {\"Al\": 1}, \"1\": {\"Al\": 1}, \"2\": {\"N\": 1}, \"3\": {\"N\": 1}}" energy=-29.596923828125 free_energy=-29.596923828125 stress="0.0159761942923069 -0.004506170284003019 0.006018653977662325 -0.004506170284003019 -0.025499453768134117 -0.004597106482833624 0.006018653977662325 -0.004597106482833624 -0.010014055296778679" pbc="T T T"
Al       1.53284810       0.86390066       2.51395075        0      -1.59464521      -0.16469640      -1.74991362      -0.27820656       0.89915675      -0.15420470
Al       0.06317840       1.83227864       5.00948378        1       0.38440018      -1.80666568       1.59449942      -0.58708620      -0.41271651       0.16725112
N        1.58572477       0.89623787       4.41422578        2       0.14193150       1.12964915      -0.09119130       0.25704244       0.38076738       0.00228155
N       -0.08152106       1.83862422       1.90381447        3       1.06831355       0.84171296       0.24660542       0.60825050      -0.86720741      -0.01532795
4
Lattice="3.128588 0.0 0.0 -1.5642939988088433 2.709436998432005 0.0 0.0 0.0 5.016955" Properties=species:S:1:pos:R:3:spacegroup_kinds:I:1:momenta:R:3:forces:R:3 spacegroup="P 1" unit_cell=conventional occupancy="_JSON {\"0\": {\"Al\": 1}, \"1\": {\"Al\": 1}, \"2\": {\"N\": 1}, \"3\": {\"N\": 1}}" energy=-29.462553024291992 free_energy=-29.462553024291992 stress="-0.005697133485227823 0.010849401354789734 -0.00390657689422369 0.010849401354789734 -0.019133830443024635 -0.012703216634690762 -0.00390657689422369 -0.012703216634690762 -0.011871459893882275" pbc="T T T"
Al       1.48347333       0.88264396       2.44527928        0      -0.30454505       1.01149545      -0.60004511       0.88392961       0.95768344       1.70777011
Al       0.06164409       1.77681259       5.07306069        1      -0.86715207      -0.75617370       0.43048938      -0.30080730       0.71655357      -1.72280037
N        1.61717706       0.94947183       4.40498429        2       0.38645802       0.04830066       0.18623285      -0.07233825      -0.67486048       0.48910794
N       -0.01486931       1.85626146       1.92266701        3       0.78523911      -0.30362241      -0.01667720      -0.51078409      -0.99937648      -0.47407776
4
Lattice="3.128588 0.0 0.0 -1.5642939988088433 2.709436998432005 0.0 0.0 0.0 5.016955" Properties=species:S:1:pos:R:3:spacegroup_kinds:I:1:momenta:R:3:forces:R:3 spacegroup="P 1" unit_cell=conventional occupancy="_JSON {\"0\": {\"Al\": 1}, \"1\": {\"Al\": 1}, \"2\": {\"N\": 1}, \"3\": {\"N\": 1}}" energy=-29.518749237060547 free_energy=-29.518749237060547 stress="-0.023370729759335518 0.006539780180901289 -0.016098130494356155 0.006539780180901289 0.006697504315525293 -0.00048235899885185063 -0.016098130494356155 -0.00048235899885185063 -0.0221614520996809" pbc="T T T"
Al       1.50607640       0.94974320       2.46463695        0       1.15921300       0.62635180       1.50689934       1.24247324      -0.60704625       1.15697420
Al       0.01335471       1.75088041       5.06242873        1      -0.91112044       0.14825256      -0.88962599       0.51474297       0.69610411      -1.43089032
N        1.62637953       0.90489618       4.42127855        2      -0.14223473      -0.64065055       0.21498330      -0.71771562      -0.51823962      -0.07984656
N        0.02538011       1.82158362       1.88963025        3      -0.10585782      -0.13395384      -0.83225677      -1.03950071       0.42918169       0.35376233
4
Lattice="3.128588 0.0 0.0 -1.5642939988088433 2.709436998432005 0.0 0.0 0.0 5.016955" Properties=species:S:1:pos:R:3:spacegroup_kinds:I:1:momenta:R:3:forces:R:3 spacegroup="P 1" unit_cell=conventional occupancy="_JSON {\"0\": {\"Al\": 1}, \"1\": {\"Al\": 1}, \"2\": {\"N\": 1}, \"3\": {\"N\": 1}}" energy=-29.605009078979492 free_energy=-29.605009078979492 stress="0.0015957211144268513 -0.0067859431728720665 -0.003095529740676284 -0.0067859431728720665 0.0017805217066779733 0.0017242755275219679 -0.003095529740676284 0.0017242755275219679 -0.02311379462480545" pbc="T T T"
Al       1.56693926       0.93861029       2.54470909        0       1.44875330      -0.98943853       1.48437429      -0.01659247      -0.29131657      -1.20300746
Al      -0.01304571       1.78057346       4.99752452        1       0.01689760       1.11024951      -1.70730037       0.38438958       0.02358162       0.50760543
N        1.58384206       0.87104969       4.42155568        2      -0.67927394      -0.02704943      -0.19037160      -0.39237168       0.15177962      -0.39792418
N        0.00122211       1.81989281       1.85992052        3      -0.78637695      -0.09376159       0.41329759       0.02457460       0.11595526       1.09332657
4
Lattice="3.128588 0.0 0.0 -1.5642939988088433 2.709436998432005 0.0 0.0 0.0 5.016955" Properties=species:S:1:pos:R:3:spacegroup_kinds:I:1:momenta:R:3:forces:R:3 spacegroup="P 1" unit_cell=conventional occupancy="_JSON {\"0\": {\"Al\": 1}, \"1\": {\"Al\": 1}, \"2\": {\"N\": 1}, \"3\": {\"N\": 1}}" energy=-29.470205307006836 free_energy=-29.470205307006836 stress="0.0032033498864620924 -0.017801353707909584 0.011838403530418873 -0.017801353707909584 -0.041348978877067566 0.007359917741268873 0.011838403530418873 0.007359917741268873 -0.005160273052752018" pbc="T T T"
Al       1.62755628       0.89950076       2.54516752        0       1.04970749      -0.99981880      -0.80202947      -1.41065204       0.15933146      -0.91778791
Al      -0.00757059       1.81703571       4.95606282        1      -0.03757910       0.11959805      -0.16512825      -0.26242778      -0.84351587       1.41445780
N        1.52756238       0.85151204       4.42065483        2      -0.42752225       0.29023087      -0.07965682       0.31766003       0.98894680      -0.00115491
N       -0.06966667       1.84442117       1.93994534        3      -0.58460614       0.58998983       1.04681457       1.35541987      -0.30476195      -0.49551487
4
Lattice="3.128588 0.0 0.0 -1.5642939988088433 2.709436998432005 0.0 0.0 0.0 5.016955" Properties=species:S:1:pos:R:3:spacegroup_kinds:I:1:momenta:R:3:forces:R:3 spacegroup="P 1" unit_cell=conventional occupancy="_JSON {\"0\": {\"Al\": 1}, \"1\": {\"Al\": 1}, \"2\": {\"N\": 1}, \"3\": {\"N\": 1}}" energy=-29.452987670898438 free_energy=-29.452987670898438 stress="-0.013224923051893711 -0.023750020191073418 0.00791151449084282 -0.023750020191073418 -0.047931693494319916 -0.007333289831876755 0.00791151449084282 -0.007333289831876755 0.028632983565330505" pbc="T T T"
Al       1.63184040       0.85684028       2.46693547        0      -0.97589078      -0.55899500      -1.34838447      -1.39010501       1.11026239       1.17303324
Al      -0.02377742       1.82170278       4.98999597        1      -0.28018760       0.45883533       1.28013576      -0.08532863       0.08283678       0.34697807
N        1.52792699       0.92957753       4.44479005        2       0.11446443       0.97873242       0.08012545       0.22036491      -0.17398904       0.05598786
N       -0.04718874       1.83921502       2.00086011        3       1.14161391      -0.87857281      -0.01187678       1.25506878      -1.01911008      -1.57599866
4
Lattice="3.128588 0.0 0.0 -1.5642939988088433 2.709436998432005 0.0 0.0 0.0 5.016955" Properties=species:S:1:pos:R:3:spacegroup_kinds:I:1:momenta:R:3:forces:R:3 spacegroup="P 1" unit_cell=conventional occupancy="_JSON {\"0\": {\"Al\": 1}, \"1\": {\"Al\": 1}, \"2\": {\"N\": 1}, \"3\": {\"N\": 1}}" energy=-29.53631591796875 free_energy=-29.53631591796875 stress="-0.019857510924339294 0.01382893230766058 -0.005717381834983826 0.01382893230766058 -0.003163988469168544 -0.001670961850322783 -0.005717381834983826 -0.001670961850322783 -0.006260600872337818" pbc="T T T"
Al       1.56291505       0.86348349       2.43836893        0      -1.44558871       0.38889116       0.34075018       0.67285967       0.11609264       1.45909655
Al      -0.01834137       1.83613135       5.05736569        1       0.19731526      -0.00921488       1.04742095       0.06595204       0.15003586      -1.19267464
N        1.54726696       0.95741149       4.47045641        2      -0.01023996       0.05684983       0.14844036       0.09761415      -0.44420904      -0.65174770
N        0.05576964       1.77068658       1.90062730        3       1.25851339      -0.43652613      -1.53661153      -0.83642578       0.17808053       0.38532561
4
Lattice="3.128588 0.0 0.0 -1.5642939988088433 2.709436998432005 0.0 0.0 0.0 5.016955" Properties=species:S:1:pos:R:3:spacegroup_kinds:I:1:momenta:R:3:forces:R:3 spacegroup="P 1" unit_cell=conventional occupancy="_JSON {\"0\": {\"Al\": 1}, \"1\": {\"Al\": 1}, \"2\": {\"N\": 1}, \"3\": {\"N\": 1}}" energy=-29.5310001373291 free_energy=-29.5310001373291 stress="-0.01829424314200878 0.01570759527385235 -0.011607849970459938 0.01570759527385235 0.003147976938635111 0.004605621565133333 -0.011607849970459938 0.004605621565133333 -0.017258740961551666" pbc="T T T"
Al       1.54701072       0.87273545       2.46070913        0       0.71855752      -0.11584435       0.49435432       1.07476604      -0.28505546       1.06925440
Al      -0.01761623       1.84389395       5.05391118        1       0.19346398       0.17720483      -0.69190215       0.23187794      -0.07941875      -1.16825318
N        1.56395353       0.94331118       4.45961399        2       0.32487465      -0.12409478      -0.51346204      -0.11547168      -0.20503372      -0.72920054
N        0.06831348       1.75176763       1.87546336        3      -1.23689619       0.06273425       0.71100983      -1.19117212       0.56950831       0.82819927
4
Lattice="3.128588 0.0 0.0 -1.5642939988088433 2.709436998432005 0.0 0.0 0.0 5.016955" Properties=species:S:1:pos:R:3:spacegroup_kinds:I:1:momenta:R:3:forces:R:3 spacegroup="P 1" unit_cell=conventional occupancy="_JSON {\"0\": {\"Al\": 1}, \"1\": {\"Al\": 1}, \"2\": {\"N\": 1}, \"3\": {\"N\": 1}}" energy=-29.61321258544922 free_energy=-29.61321258544922 stress="-0.008381604216992855 -0.00427677296102047 0.005492861848324537 -0.00427677296102047 -0.013937127776443958 0.0014804040547460318 0.005492861848324537 0.0014804040547460318 0.012475317344069481" pbc="T T T"
Al       1.57767907       0.87033374       2.48321565        0       0.42145929      -0.10086036       0.75449437      -0.50598776       0.14215469       0.64867675
Al       0.00878685       1.84488742       5.00616575        1       0.94842482       0.04829621      -0.67234696      -0.28190991      -0.37569776       0.05942702
N        1.54733739       0.91884309       4.41695257        2      -0.50233555      -0.06173778      -0.86681694       0.26756719       0.16352591       0.34766674
N       -0.02491949       1.77881443       1.96659666        3      -0.86754860       0.11430188       0.78466949       0.52033055       0.07001705      -1.05577040
4
Lattice="3.128588 0.0 0.0 -1.5642939988088433 2.709436998432005 0.0 0.0 0.0 5.016955" Properties=species:S:1:pos:R:3:spacegroup_kinds:I:1:momenta:R:3:forces:R:3 spacegroup="P 1" unit_cell=conventional occupancy="_JSON {\"0\": {\"Al\": 1}, \"1\": {\"Al\": 1}, \"2\": {\"N\": 1}, \"3\": {\"N\": 1}}" energy=-29.557838439941406 free_energy=-29.557838439941406 stress="-0.016363808885216713 -0.0029478457290679216 0.012903949245810509 -0.0029478457290679216 -0.00620775343850255 0.0015376720111817122 0.012903949245810509 0.0015376720111817122 -0.0027149724774062634" pbc="T T T"
Al       1.59068814       0.88023427       2.52274587        0      -0.41625620       0.17887075       0.33160765      -0.90884149      -0.14031464      -0.36868253
Al       0.01872293       1.83477376       4.97781988        1       0.14973931      -0.20763091      -0.17578513      -0.72829723      -0.10046123       0.72653389
N        1.52039174       0.92489998       4.39464371        2       0.19754372       0.25939938       0.47781802       0.72475821      -0.09605227       0.71574032
N       -0.04216870       1.77342025       1.96745701        3       0.06897312      -0.23063927      -0.63364053       0.91238034       0.33682826      -1.07359147
4
Lattice="3.128588 0.0 0.0 -1.5642939988088433 2.709436998432005 0.0 0.0 0.0 5.016955" Properties=species:S:1:pos:R:3:spacegroup_kinds:I:1:momenta:R:3:forces:R:3 spacegroup="P 1" unit_cell=conventional occupancy="_JSON {\"0\": {\"Al\": 1}, \"1\": {\"Al\": 1}, \"2\": {\"N\": 1}, \"3\": {\"N\": 1}}" energy=-29.621110916137695 free_energy=-29.621110916137695 stress="-0.021500665694475174 0.00527639826759696 -0.003267476335167885 0.00527639826759696 0.010657759383320808 0.0019249068573117256 -0.003267476335167885 0.0019249068573117256 -0.00158984016161412" pbc="T T T"
Al       1.54767647       0.89587761       2.50832858        0      -0.85810017       0.46896532      -1.00003119       0.39160421      -0.39029115      -0.15032564
Al       0.00665802       1.82067514       5.00342492        1      -0.72966973      -0.11082602       1.46536819      -0.00949354       0.22697002       0.34862873
N        1.57185932       0.94293302       4.45440723        2       0.62349818      -0.37686566       0.64593252      -0.01970284      -0.43335354      -0.83889949
N        0.01256036       1.75229417       1.88600534        3       0.96427168       0.01872635      -1.11126947      -0.36240789       0.59667456       0.64059669
4
Lattice="3.128588 0.0 0.0 -1.5642939988088433 2.709436998432005 0.0 0.0 0.0 5.016955" Properties=species:S:1:pos:R:3:spacegroup_kinds:I:1:momenta:R:3:forces:R:3 spacegroup="P 1" unit_cell=conventional occupancy="_JSON {\"0\": {\"Al\": 1}, \"1\": {\"Al\": 1}, \"2\": {\"N\": 1}, \"3\": {\"N\": 1}}" energy=-29.520856857299805 free_energy=-29.520856857299805 stress="-0.014047612436115742 0.011820954270660877 -0.014255572110414505 0.011820954270660877 -0.005614690948277712 0.009361464530229568 -0.014255572110414505 0.009361464530229568 -0.019571028649806976" pbc="T T T"
Al       1.52999428       0.91403915       2.46474568        0       0.09545193      -0.23101267      -1.18071373       1.21875358      -0.63577318       0.99290204
Al      -0.00890655       1.82180734       5.05208966        1       0.31216923      -0.10747426       0.45537805       0.39472818      -0.38378507      -1.12710202
N        1.59437709       0.88605552       4.45928988        2      -0.04799065      -0.53350379      -0.20523338      -0.40810579       0.35578972      -0.79021728
N        0.05384452       1.77207217       1.87144998        3      -0.35963054       0.87199073       0.93056917      -1.20537615       0.66376871       0.92441714
4
Lattice="3.128588 0.0 0.0 -1.5642939988088433 2.709436998432005 0.0 0.0 0.0 5.016955" Properties=species:S:1:pos:R:3:spacegroup_kinds:I:1:momenta:R:3:forces:R:3 spacegroup="P 1" unit_cell=conventional occupancy="_JSON {\"0\": {\"Al\": 1}, \"1\": {\"Al\": 1}, \"2\": {\"N\": 1}, \"3\": {\"N\": 1}}" energy=-29.61878776550293 free_energy=-29.61878776550293 stress="0.010117963887751102 -0.0018221259815618396 -0.0018729448784142733 -0.0018221259815618396 -0.024782979860901833 0.004591199103742838 -0.0018729448784142733 0.004591199103742838 2.6699768568505533e-05" pbc="T T T"
Al       1.53818036       0.90928015       2.47247629        0       0.23228574      -0.27447270       1.41733368       0.21200934       0.18702516       0.85530800
Al       0.01802691       1.81430744       5.03506518        1       0.60360831      -0.42930298      -1.11140780       0.03760071      -0.69444299      -0.55142581
N        1.59518007       0.85128043       4.42414642        2       0.09084583       0.02420707      -0.77345561      -0.19470263       0.84070665       0.01228137
N       -0.01452985       1.83034439       1.92467356        3      -0.92673991       0.67956862       0.46752986      -0.05490733      -0.33328906      -0.31616369
4
Lattice="3.128588 0.0 0.0 -1.5642939988088433 2.709436998432005 0.0 0.0 0.0 5.016955" Properties=species:S:1:pos:R:3:spacegroup_kinds:I:1:momenta:R:3:forces:R:3 spacegroup="P 1" unit_cell=conventional occupancy="_JSON {\"0\": {\"Al\": 1}, \"1\": {\"Al\": 1}, \"2\": {\"N\": 1}, \"3\": {\"N\": 1}}" energy=-29.623743057250977 free_energy=-29.623743057250977 stress="0.004300137981772423 -0.008672680705785751 0.0028819723520427942 -0.008672680705785751 -0.00694367615506053 -0.004434597212821245 0.0028819723520427942 -0.004434597212821245 -0.014839078299701214" pbc="T T T"
Al       1.54321208       0.89379622       2.53645984        0      -0.00705454      -0.41529043       0.79445040      -0.25250322       0.39302945      -0.87834448
Al       0.03580899       1.79893951       4.98957806        1       0.09337854      -0.29525165      -0.61192026      -0.16601191       0.14058293       0.62745309
N        1.59619752       0.90645093       4.40111844        2      -0.02189752       1.09350703       0.27120868      -0.08899736      -0.09593905       0.34911013
N       -0.05911261       1.83464208       1.91219260        3      -0.06442648      -0.38296495      -0.45373870       0.50751245      -0.43767327      -0.09821856
