4
Lattice="3.128588 0.0 0.0 -1.5642939988088433 2.709436998432005 0.0 0.0 0.0 5.016955" Properties=species:S:1:pos:R:3:spacegroup_kinds:I:1:forces:R:3 spacegroup="P 1" unit_cell=conventional occupancy="_JSON {\"0\": {\"Al\": 1}, \"1\": {\"Al\": 1}, \"2\": {\"N\": 1}, \"3\": {\"N\": 1}}" energy=-29.673717498779297 free_energy=-29.673717498779297 stress="-0.0022253289353102446 -1.4200591067492496e-06 -5.876847808394814e-08 -1.4200591067492496e-06 -0.0022275340743362904 -4.236537520796446e-08 -5.876847808394814e-08 -4.236537520796446e-08 -0.005453711375594139" pbc="T T T"
Al       1.56429556       0.90314476       2.50490041        0      -0.00003357       0.00002075       0.00553229
Al      -0.00000156       1.80629224       5.01337791        1       0.00003579      -0.00001974       0.00552433
N        1.56429556       0.90314476       4.41849749        2      -0.00003731       0.00002047      -0.00553070
N       -0.00000156       1.80629224       1.91001999        3       0.00003504      -0.00002152      -0.00552581
