32
Lattice="6.17176593 0.0 0.0 0.0 8.01859859 0.0 0.0 0.0 13.03281824" Properties=species:S:1:pos:R:3:spacegroup_kinds:I:1:momenta:R:3:forces:R:3 spacegroup="P 1" unit_cell=conventional occupancy="_JSON {\"0\": {\"Li\": 1}, \"1\": {\"Li\": 1}, \"2\": {\"Li\": 1}, \"3\": {\"Li\": 1}, \"4\": {\"Li\": 1}, \"5\": {\"Li\": 1}, \"6\": {\"Li\": 1}, \"7\": {\"Li\": 1}, \"8\": {\"Li\": 1}, \"9\": {\"Li\": 1}, \"10\": {\"Li\": 1}, \"11\": {\"Li\": 1}, \"12\": {\"P\": 1}, \"13\": {\"P\": 1}, \"14\": {\"P\": 1}, \"15\": {\"P\": 1}, \"16\": {\"S\": 1}, \"17\": {\"S\": 1}, \"18\": {\"S\": 1}, \"19\": {\"S\": 1}, \"20\": {\"S\": 1}, \"21\": {\"S\": 1}, \"22\": {\"S\": 1}, \"23\": {\"S\": 1}, \"24\": {\"S\": 1}, \"25\": {\"S\": 1}, \"26\": {\"S\": 1}, \"27\": {\"S\": 1}, \"28\": {\"S\": 1}, \"29\": {\"S\": 1}, \"30\": {\"S\": 1}, \"31\": {\"S\": 1}}" energy=-139.20269775390625 free_energy=-139.20269775390625 stress="-0.0011559934355318546 0.0031378022395074368 -0.002924380823969841 0.0031378022395074368 -0.0022635150235146284 8.09291668701917e-05 -0.002924380823969841 8.09291668701917e-05 -0.0029986558947712183" pbc="T T T"
Li       2.47013244       0.26802633       3.87003250        0       0.57737843      -0.64868702      -0.13177317       0.00242735      -0.04597238       0.44961327
Li       4.31872560       7.86454145       8.84207813        1       0.40297789       0.10247092      -0.12962312      -0.33637375       0.23789942       0.13224754
Li       5.05338082       7.98542866       2.25575958        2       0.27714649       0.13793484       0.44207201       0.21368234      -0.76582998       0.05730312
Li       0.74131675       0.14668585      10.74118266        3      -0.52225562       0.04420390       0.90681725      -0.13734703       0.03941716       0.25897178
Li       3.83521552       4.25049749       8.73698247        4      -0.52326602      -0.31201396       0.09939222      -0.16083278       0.31095928      -0.01014871
Li       2.18392838       4.03779460       4.19781191        5      -0.15710836       0.03953089      -0.37883027       0.10006056      -0.22130436       0.15418613
Li       0.87519084       3.91245647      10.67870511        6      -0.32716204       0.20139481       0.26020080      -0.02309624      -0.34493011       0.02111503
Li       5.30989616       4.18333428       1.93522633        7      -0.64080416      -0.39760520      -0.10938087       0.14586373       0.18303451       0.58001208
Li       2.70006392      -0.35845865      -0.15680261        8      -0.66156710      -0.26659117      -0.23432175      -0.16725437       0.05219677       0.01415310
Li       0.42016956      -0.17312234       6.35660306        9       0.07279201      -0.20764848      -0.92107386       0.23432237       0.06715681       0.17389159
Li       3.36754293       3.42844277      -0.11312867       10      -0.14448612       0.32653550      -0.08717434      -0.26970214       0.15335366      -0.11958770
Li      -0.26985255       4.03933233       6.61693733       11      -0.76968586       0.06670619       0.03525645       0.26290375      -0.36784399       0.09056432
P        0.58149610       2.02338566       1.06327441       12      -0.29055896       0.16587847       1.24215662       2.47674298      -0.27808398      -0.93847716
P        5.26042533       5.92092937      12.05546354       13       0.72880149      -1.64722146      -1.12926059       0.04736917       0.31845897      -1.08045340
P        4.11141761       6.09651660       5.50229787       14      -0.51415865       0.28091923       0.47300958      -0.42058915       0.50708139      -0.98445737
P        2.33964533       2.04907512       7.62560879       15       0.89966715      -0.69338518      -0.62181772      -0.86398697      -0.63140219      -0.13277136
S        4.76775826       1.96588660       1.21290089       16       1.10759770       0.33678185      -0.26320113      -0.81282723       0.54606104       0.02064122
S        1.16030574       5.92103050      11.83750711       17      -1.21095715       0.45888265       0.15333906      -0.44643643       0.22844246       0.20369396
S        2.06341316       6.14982360       5.35879318       18      -0.03229028      -0.25874501       0.69735175       0.00586650       0.03455742      -0.23869517
S        4.35056557       2.14237142       7.81132550       19      -0.69398071      -1.36846634      -1.24760149       0.40572625      -0.15563960       0.12922227
S        1.50024709       1.98563861      12.12800748       20      -0.43605367       1.42226109      -0.90264556      -0.43075877       0.03518117       0.65026784
S        4.28233023       5.89984982       0.83732271       21       0.70954511       0.53835898       0.07389434       0.09912802      -0.15408009       0.16141507
S        4.82337913       6.08527999       7.40105990       22       0.64221569      -0.41914354      -0.75105869       0.40593171      -0.12113041       0.56842709
S        1.69222516       1.92104605       5.63935005       23       0.93384556       2.12385853      -0.21100937      -0.13648073       0.14639170       0.34657681
S        1.26241322       0.19382925       1.77496318       24      -0.48889151      -0.97624859       0.55682142      -0.04331156       0.24255748       0.33258516
S        4.58010628       7.74421231      11.33095274       25      -0.21219127       1.51647451       2.29594615       0.06783096      -0.32192558      -0.38372076
S        4.89048251       7.81646480       4.62217683       26      -1.37361619      -1.10116762       1.01759979      -0.31548613      -0.20954505       0.06874713
S        1.64678526       0.30759076       8.63084502       27      -0.15043762      -0.26633800       0.21904505       0.45761073       0.54871744      -0.83591151
S        4.65719631       4.22425012      10.93585807       28       0.70232145       0.91048393       0.02920529       0.03738306       0.51596802       0.76928222
S        1.50842275       3.70650413       1.87057106       29       0.39691589       0.22586086      -0.10485684      -0.48367852      -0.38383716      -0.10245311
S        1.45328965       3.76426009       8.35432548       30       0.76473465      -0.71101945      -0.57193319       0.17496014      -0.02661526      -0.00587450
S        4.74771945       4.37905602       4.59966480       31       0.93353198       0.37574385      -0.70654587      -0.08964743      -0.13929476      -0.35036618
