32
Lattice="6.17176593 0.0 0.0 0.0 8.01859859 0.0 0.0 0.0 13.03281824" Properties=species:S:1:pos:R:3:spacegroup_kinds:I:1:momenta:R:3:forces:R:3 spacegroup="P 1" unit_cell=conventional occupancy="_JSON {\"0\": {\"Li\": 1}, \"1\": {\"Li\": 1}, \"2\": {\"Li\": 1}, \"3\": {\"Li\": 1}, \"4\": {\"Li\": 1}, \"5\": {\"Li\": 1}, \"6\": {\"Li\": 1}, \"7\": {\"Li\": 1}, \"8\": {\"Li\": 1}, \"9\": {\"Li\": 1}, \"10\": {\"Li\": 1}, \"11\": {\"Li\": 1}, \"12\": {\"P\": 1}, \"13\": {\"P\": 1}, \"14\": {\"P\": 1}, \"15\": {\"P\": 1}, \"16\": {\"S\": 1}, \"17\": {\"S\": 1}, \"18\": {\"S\": 1}, \"19\": {\"S\": 1}, \"20\": {\"S\": 1}, \"21\": {\"S\": 1}, \"22\": {\"S\": 1}, \"23\": {\"S\": 1}, \"24\": {\"S\": 1}, \"25\": {\"S\": 1}, \"26\": {\"S\": 1}, \"27\": {\"S\": 1}, \"28\": {\"S\": 1}, \"29\": {\"S\": 1}, \"30\": {\"S\": 1}, \"31\": {\"S\": 1}}" energy=-140.31869506835938 free_energy=-140.31869506835938 stress="-0.007170633412897587 -8.784676985840179e-09 6.480473491166094e-09 -8.784676985840179e-09 -0.00825943797826767 -3.935329395687859e-09 6.480473491166094e-09 -3.935329395687859e-09 -0.0052663302049040794" pbc="T T T"
Li       2.40329652       0.26860172       4.33400832        0       0.00000000       0.00000000       0.00000000      -0.02603517       0.00549128      -0.00432117
Li       3.76846941       7.74999687       8.69880992        1       0.00000000       0.00000000       0.00000000       0.02603646      -0.00549229       0.00432284
Li       5.48917948       7.74999687       2.18240080        2       0.00000000       0.00000000       0.00000000      -0.02603549      -0.00549059       0.00432296
Li       0.68258645       0.26860172      10.85041744        3       0.00000000       0.00000000       0.00000000       0.02603534       0.00549246      -0.00431911
Li       3.76846941       4.27790102       8.69880992        4       0.00000000       0.00000000       0.00000000       0.02603645       0.00549161       0.00432273
Li       2.40329652       3.74069757       4.33400832        5       0.00000000       0.00000000       0.00000000      -0.02603574      -0.00549111      -0.00432100
Li       0.68258645       3.74069757      10.85041744        6       0.00000000       0.00000000       0.00000000       0.02603619      -0.00549217      -0.00431966
Li       5.48917948       4.27790102       2.18240080        7       0.00000000       0.00000000       0.00000000      -0.02603645       0.00549132       0.00432289
Li       3.08588297       0.00000000       0.00000000        8       0.00000000       0.00000000       0.00000000      -0.00000062      -0.00000169       0.00000008
Li       0.00000000       0.00000000       6.51640912        9       0.00000000       0.00000000       0.00000000       0.00000111      -0.00000108      -0.00000073
Li       3.08588297       4.00929929       0.00000000       10       0.00000000       0.00000000       0.00000000      -0.00000000      -0.00000015      -0.00000086
Li       0.00000000       4.00929929       6.51640912       11       0.00000000       0.00000000       0.00000000       0.00000080       0.00000106      -0.00000029
P        0.94051010       2.00464965       1.16601784       12       0.00000000       0.00000000       0.00000000      -0.02067126      -0.00000167       0.02376043
P        5.23125583       6.01394894      11.86680040       13       0.00000000       0.00000000       0.00000000       0.02066575      -0.00000039      -0.02375991
P        4.02639307       6.01394894       5.35039128       14       0.00000000       0.00000000       0.00000000      -0.02066753       0.00000091      -0.02375738
P        2.14537286       2.00464965       7.68242696       15       0.00000000       0.00000000       0.00000000       0.02066888       0.00000020       0.02375709
S        5.08970823       2.00464965       1.30575389       16       0.00000000       0.00000000       0.00000000      -0.25450656       0.00000079       0.01679128
S        1.08205770       6.01394894      11.72706435       17       0.00000000       0.00000000       0.00000000       0.25450745       0.00000085      -0.01679195
S        2.00382526       6.01394894       5.21065523       18       0.00000000       0.00000000       0.00000000      -0.25450641      -0.00000060      -0.01679231
S        4.16794067       2.00464965       7.82216301       19       0.00000000       0.00000000       0.00000000       0.25449991      -0.00000022       0.01679108
S        1.68132889       2.00464965      12.25955363       20       0.00000000       0.00000000       0.00000000       0.10912259       0.00000005      -0.16719621
S        4.49043704       6.01394894       0.77326461       21       0.00000000       0.00000000       0.00000000      -0.10912059       0.00000024       0.16718115
S        4.76721186       6.01394894       7.28967373       22       0.00000000       0.00000000       0.00000000       0.10912058      -0.00000020       0.16717932
S        1.40455407       2.00464965       5.74314451       23       0.00000000       0.00000000       0.00000000      -0.10911946      -0.00000039      -0.16718104
S        1.67233151       0.29287049       2.00524453       24       0.00000000       0.00000000       0.00000000       0.13957776      -0.21272518       0.08709948
S        4.49943442       7.72572810      11.02757371       25       0.00000000       0.00000000       0.00000000      -0.13957572       0.21272470      -0.08709206
S        4.75821447       7.72572810       4.51116459       26       0.00000000       0.00000000       0.00000000       0.13957459       0.21272370      -0.08709297
S        1.41355146       0.29287049       8.52165365       27       0.00000000       0.00000000       0.00000000      -0.13957544      -0.21272069       0.08709218
S        4.49943442       4.30216979      11.02757371       28       0.00000000       0.00000000       0.00000000      -0.13957717      -0.21272480      -0.08709308
S        1.67233151       3.71642880       2.00524453       29       0.00000000       0.00000000       0.00000000       0.13957874       0.21272723       0.08709819
S        1.41355146       3.71642880       8.52165365       30       0.00000000       0.00000000       0.00000000      -0.13957497       0.21272127       0.08709225
S        4.75821447       4.30216979       4.51116459       31       0.00000000       0.00000000       0.00000000       0.13957581      -0.21272442      -0.08709447
32
Lattice="6.17176593 0.0 0.0 0.0 8.01859859 0.0 0.0 0.0 13.03281824" Properties=species:S:1:pos:R:3:spacegroup_kinds:I:1:momenta:R:3:forces:R:3 spacegroup="P 1" unit_cell=conventional occupancy="_JSON {\"0\": {\"Li\": 1}, \"1\": {\"Li\": 1}, \"2\": {\"Li\": 1}, \"3\": {\"Li\": 1}, \"4\": {\"Li\": 1}, \"5\": {\"Li\": 1}, \"6\": {\"Li\": 1}, \"7\": {\"Li\": 1}, \"8\": {\"Li\": 1}, \"9\": {\"Li\": 1}, \"10\": {\"Li\": 1}, \"11\": {\"Li\": 1}, \"12\": {\"P\": 1}, \"13\": {\"P\": 1}, \"14\": {\"P\": 1}, \"15\": {\"P\": 1}, \"16\": {\"S\": 1}, \"17\": {\"S\": 1}, \"18\": {\"S\": 1}, \"19\": {\"S\": 1}, \"20\": {\"S\": 1}, \"21\": {\"S\": 1}, \"22\": {\"S\": 1}, \"23\": {\"S\": 1}, \"24\": {\"S\": 1}, \"25\": {\"S\": 1}, \"26\": {\"S\": 1}, \"27\": {\"S\": 1}, \"28\": {\"S\": 1}, \"29\": {\"S\": 1}, \"30\": {\"S\": 1}, \"31\": {\"S\": 1}}" energy=-139.92076110839844 free_energy=-139.92076110839844 stress="0.00015214701124932617 0.0004864634829573333 -0.000668972497805953 0.0004864634829573333 -0.0040653604082763195 -0.0031063940841704607 -0.000668972497805953 -0.0031063940841704607 -0.003906702622771263" pbc="T T T"
Li       2.39495112       0.30053072       4.28845399        0      -0.09199434      -0.16974690      -0.07969888       0.05511446       0.00051960       0.20287699
Li       3.76547315       7.83875303       8.45846546        1       0.49353763       0.41717818      -0.28743039       0.13183802      -0.08570383       0.21683797
Li       5.60691375       7.70167842       2.24895241        2      -0.19410301      -0.06480629       0.04712049      -0.35789025      -0.06287514      -0.22524333
Li       0.71322238       0.22198066      10.86648189        3      -0.00356737      -0.41454883      -0.02588373      -0.08792335      -0.02941248      -0.06179514
Li       3.80219127       4.35247968       8.65379921        4      -0.31795365      -0.44743006       0.28039970      -0.08427957      -0.02779706       0.14408402
Li       2.28005351       3.88495597       4.43261600        5       0.15647944       0.11136072      -0.46034469       0.12289836      -0.47995323      -0.16153763
Li       0.73380724       3.66354383      10.84461458        6      -0.53243692      -0.33626292      -0.21406822      -0.16661103       0.15838745      -0.09316601
Li       5.41324345       4.12674145       2.23065600        7      -0.55475128      -0.25773016      -0.08806291       0.06251906       0.27267432      -0.06932268
Li       2.97469380      -0.16876050      -0.04092545        8      -0.22946590      -0.24702061      -0.15209800       0.01445470       0.01125976      -0.02833368
Li       0.09495218      -0.21089095       6.52891980        9       0.12990008      -0.66589470       0.18621411       0.22324115       0.15439188      -0.02280116
Li       2.98562768       4.03805332      -0.04630127       10      -0.31656834      -0.40119535      -0.03296247       0.09011039       0.01166752      -0.05545078
Li      -0.06081823       4.08232187       6.48746261       11      -0.30945953       0.06109614       0.27562047       0.16186456      -0.19870181       0.18345398
P        0.89716682       1.99676901       1.21156736       12       0.03642359      -0.84719993       0.15950806      -0.03821184      -0.19664669      -0.46497661
P        5.23669170       6.04968699      11.87364687       13       0.14585881       0.13755868      -0.21474402      -0.06632084      -0.11238147      -0.00888942
P        4.05172596       6.03026626       5.29678276       14       0.73019083      -0.17253852       0.10479902      -0.38720608      -0.09977720       0.12169031
P        2.16475816       2.04125497       7.72062742       15       0.86403662       0.30919489       0.25198519      -0.36467731      -0.20387894       0.06644183
S        4.98398312       2.01705226       1.28222382       16      -0.23391358      -0.06631650      -0.23263038       0.96873266      -0.34042299       0.09078516
S        1.10299919       5.98074017      11.76320414       17      -0.03610674      -0.22731694       0.39007570       0.18742378       0.08929946      -0.03658703
S        1.98525348       5.98891543       5.26683194       18      -0.45295216       0.83917640       0.92958422       0.21136177       0.62615466      -0.12252977
S        4.18169702       2.11280697       7.80673769       19      -0.33014466       0.40779203       0.15878142       0.32152086      -0.26528829       0.08735492
S        1.66872241       1.94142865      12.23369977       20      -0.61953595      -0.57568483       0.28290333      -0.12513697       0.08478130       0.80483961
S        4.53547176       5.97298203       0.81014438       21       0.34535765      -0.86597630       0.83914531      -0.11731121       0.20419897      -0.08951977
S        4.74192235       6.01043967       7.24726745       22       0.18357654       0.75851745      -1.45560356       0.24695742       0.18119374       0.24433422
S        1.40025936       2.02383750       5.81183565       23      -0.66193401      -0.08091220      -0.23589499      -0.17917688      -0.17916614      -0.51722991
S        1.67166876       0.22280622       2.04404009       24       0.33048598       0.34384193       0.04666416      -0.09444379       0.62390602      -0.35291496
S        4.47004231       7.69510431      10.93688697       25      -0.23876161      -0.40415699      -0.01039958       0.08183132       0.23071156       0.24288988
S        4.83715700       7.72948394       4.48532583       26       1.03438840       0.66817620       0.43904637      -0.25178283       0.10809673       0.08006477
S        1.44223032       0.25140797       8.56026325       27       0.30158927       0.79640861      -0.02333693       0.12213852       0.53207785      -0.16706577
S        4.47626549       4.38161562      10.99140894       28      -0.28753369       0.06780593      -0.75192975      -0.05420360      -0.54225701      -0.04678052
S        1.70022915       3.71572404       2.03751358       29      -0.19983319       0.30398236      -0.19643795      -0.30264533      -0.34498781      -0.11650901
S        1.43796400       3.79553896       8.47263584       30       0.71815475       0.51720208      -0.38191496      -0.22762105       0.04912660       0.40472248
S        4.76442964       4.28757693       4.52223108       31       0.14103640       0.50544644       0.45159380      -0.09656513      -0.16919729      -0.24972320
32
Lattice="6.17176593 0.0 0.0 0.0 8.01859859 0.0 0.0 0.0 13.03281824" Properties=species:S:1:pos:R:3:spacegroup_kinds:I:1:momenta:R:3:forces:R:3 spacegroup="P 1" unit_cell=conventional occupancy="_JSON {\"0\": {\"Li\": 1}, \"1\": {\"Li\": 1}, \"2\": {\"Li\": 1}, \"3\": {\"Li\": 1}, \"4\": {\"Li\": 1}, \"5\": {\"Li\": 1}, \"6\": {\"Li\": 1}, \"7\": {\"Li\": 1}, \"8\": {\"Li\": 1}, \"9\": {\"Li\": 1}, \"10\": {\"Li\": 1}, \"11\": {\"Li\": 1}, \"12\": {\"P\": 1}, \"13\": {\"P\": 1}, \"14\": {\"P\": 1}, \"15\": {\"P\": 1}, \"16\": {\"S\": 1}, \"17\": {\"S\": 1}, \"18\": {\"S\": 1}, \"19\": {\"S\": 1}, \"20\": {\"S\": 1}, \"21\": {\"S\": 1}, \"22\": {\"S\": 1}, \"23\": {\"S\": 1}, \"24\": {\"S\": 1}, \"25\": {\"S\": 1}, \"26\": {\"S\": 1}, \"27\": {\"S\": 1}, \"28\": {\"S\": 1}, \"29\": {\"S\": 1}, \"30\": {\"S\": 1}, \"31\": {\"S\": 1}}" energy=-139.83868408203125 free_energy=-139.83868408203125 stress="-0.0012285413686186075 -0.0012938941363245249 -0.0013292583171278238 -0.0012938941363245249 -0.00879778154194355 0.00259323138743639 -0.0013292583171278238 0.00259323138743639 -0.0055106389336287975" pbc="T T T"
Li       2.44854361       0.40019071       4.27640617        0       0.54113382      -0.01350219      -0.09598340      -0.06680540      -0.06726103      -0.16005725
Li       3.83747878       7.83749327       8.68404472        1      -0.33067915       0.32961309       0.62278491       0.12936154      -0.03954766      -0.03551494
Li       5.20221984       7.75224139       2.11159515        2      -0.20103164       0.34599188      -0.24308346       0.28230411       0.02338894       0.18145780
Li       0.68079326       0.12810111      10.87889553        3      -0.15420369       0.04147050       0.21991775       0.08681438       0.04971387      -0.10632484
Li       3.81878953       4.36796835       8.65138274        4       0.72861112       0.86474300      -0.09863789      -0.14064905      -0.00503825       0.03757979
Li       2.36785342       3.73395812       4.27630221        5      -0.20067888       0.19414938      -0.20024633      -0.05147051       0.17832838       0.03690421
Li       0.60349628       3.47955690      10.91861431        6       0.41016909       0.17225081       0.42602598       0.00540995       0.46162093      -0.29180038
Li       5.35379742       4.16178980       2.22456066        7       0.06703510      -0.27621870      -0.12673278       0.03683076      -0.04053612       0.05988609
Li       2.89046289      -0.34769166      -0.04558961        8      -0.09663281       0.09960997      -0.05145900      -0.11679848       0.05695361      -0.14940949
Li       0.60983060      -0.15538800       6.42275233        9       0.21362566       0.43548852      -0.36494353      -0.39158288      -0.31371474      -0.02115535
Li       3.12918142       3.87337124      -0.04096822       10      -0.10734055      -0.44225498      -0.13261702      -0.03509428      -0.08189540      -0.01053103
Li      -0.08005098       4.01385699       6.73331372       11      -0.07962670      -0.55211430       0.27598090      -0.19781926      -0.02271426      -0.20671639
P        0.92266192       1.94490412       1.13799191       12       0.17269778       0.28466197       0.09242179      -0.64675820      -0.20105946      -0.32676500
P        5.21443022       5.97654972      11.91996090       13      -0.01059057       0.09990413       0.65261638       0.46437180       0.10289054      -0.21026967
P        4.04038154       6.11300976       5.27974619       14       0.18351345      -0.06092811       0.82803259      -0.30064315      -0.32013762       0.80094641
P        2.20168170       2.07275820       7.63719205       15       0.31669816       0.21378216       0.53428365       0.87175655       0.84498000       1.35791612
S        5.05312314       1.91347773       1.27397255       16       0.09178641      -0.55722781       0.20420592      -0.26791444       0.28879109      -0.07307290
S        1.09263762       5.93782693      11.78889726       17      -0.66590000      -0.98735916       0.66998790       0.03108276      -0.03896389       0.05309535
S        1.95864883       6.13281722       5.20264445       18      -0.59307853       1.00524915      -1.59749236       0.47448558      -0.14456612      -0.21914373
S        4.29383328       2.06349256       7.89867413       19       0.11957904      -0.56267565       0.82553046      -0.77290815       0.27507749      -0.31491542
S        1.58897887       1.91729890      12.20994929       20      -0.18602039       0.87007005      -0.93602229       0.52001846      -0.15648255       0.12527844
S        4.45791162       5.93587870       0.83830681       21      -0.50810210      -0.32003994      -1.47668483      -0.16813461      -0.15778992      -0.27432740
S        4.80915175       6.12978309       7.24191605       22       0.46496676       0.58499341       0.41725260      -0.01901398      -0.08863053      -0.11520743
S        1.42069513       2.06629361       5.76693608       23       0.76144926       0.26122846      -0.33222533      -0.11590791       0.05201671      -0.75387841
S        1.62085831       0.23015610       1.92688856       24      -0.98361607      -0.53216361      -0.54195454       0.20072040      -0.47918379       0.56507236
S        4.53377954       7.69431076      11.03346577       25       1.22543072       0.04016475       0.84055395      -0.28507540      -0.00089590       0.22785741
S        4.76385802       7.83644648       4.51076300       26      -1.75664127       0.08881270      -0.90154321       0.28782564       0.08891246      -0.29774499
S        1.52673228       0.40529833       8.55647089       27       0.57731914       0.72037075      -0.21827877      -0.30716076      -0.63195205       0.19853963
S        4.55846162       4.29159131      10.98362801       28       0.67466720      -0.65269034       0.47401341      -0.43873066      -0.21288852       0.12205806
S        1.56190202       3.66604422       1.96174033       29      -0.23741710      -1.61322564      -0.47673398       0.48051858       0.55038255       0.23567565
S        1.38974823       3.76767929       8.58260595       30       0.05642980      -0.96586443       0.40595587       0.46737814      -0.30188885      -0.26156276
S        4.70784462       4.27518479       4.58753096       31      -0.49355300       0.88371020       0.30507470      -0.01641176       0.33209020      -0.17387001
32
Lattice="6.17176593 0.0 0.0 0.0 8.01859859 0.0 0.0 0.0 13.03281824" Properties=species:S:1:pos:R:3:spacegroup_kinds:I:1:momenta:R:3:forces:R:3 spacegroup="P 1" unit_cell=conventional occupancy="_JSON {\"0\": {\"Li\": 1}, \"1\": {\"Li\": 1}, \"2\": {\"Li\": 1}, \"3\": {\"Li\": 1}, \"4\": {\"Li\": 1}, \"5\": {\"Li\": 1}, \"6\": {\"Li\": 1}, \"7\": {\"Li\": 1}, \"8\": {\"Li\": 1}, \"9\": {\"Li\": 1}, \"10\": {\"Li\": 1}, \"11\": {\"Li\": 1}, \"12\": {\"P\": 1}, \"13\": {\"P\": 1}, \"14\": {\"P\": 1}, \"15\": {\"P\": 1}, \"16\": {\"S\": 1}, \"17\": {\"S\": 1}, \"18\": {\"S\": 1}, \"19\": {\"S\": 1}, \"20\": {\"S\": 1}, \"21\": {\"S\": 1}, \"22\": {\"S\": 1}, \"23\": {\"S\": 1}, \"24\": {\"S\": 1}, \"25\": {\"S\": 1}, \"26\": {\"S\": 1}, \"27\": {\"S\": 1}, \"28\": {\"S\": 1}, \"29\": {\"S\": 1}, \"30\": {\"S\": 1}, \"31\": {\"S\": 1}}" energy=-139.53811645507812 free_energy=-139.53811645507812 stress="0.0034784094896167517 -0.001491615897975862 0.002022113185375929 -0.001491615897975862 0.001119539374485612 0.0004644438158720732 0.002022113185375929 0.0004644438158720732 -0.004793697502464056" pbc="T T T"
Li       2.42858963       0.31052715       4.07775046        0      -0.53702934      -0.14464172      -0.13757328       0.01621211       0.08217365       0.15418956
Li       3.95218710       7.77471954       8.78977300        1       0.21058143      -0.23673447      -0.67578255      -0.12948827       0.25651968      -0.07726256
Li       5.24877761       7.61324320       2.21567647        2       0.16519883      -0.82388931      -0.16964224       0.03855250       0.14401890      -0.39911667
Li       0.80271559       0.17826492      10.71426910        3      -0.02444582       0.00104495      -0.35950692      -0.27599064      -0.12928614       0.40995798
Li       3.79234800       4.51623893       8.89483955        4      -0.53014193      -0.33470656       0.79274477       0.04203711      -0.03695895      -0.38464561
Li       2.31686302       3.83661459       4.26375986        5      -0.18925069      -0.00594979       0.09635320       0.00627686      -0.01310410      -0.09933535
Li       0.62833550       3.71628906      10.83400620        6       0.08074361       0.26085437      -0.49910239       0.43616331      -0.09635624      -0.03476084
Li       5.37861340       4.09817462       2.13711247        7      -0.24844892       0.27616563       0.34619242      -0.12311280       0.20436750       0.14100042
Li       2.55969584      -0.30733199      -0.18851695        8      -0.59734548      -0.28773622      -0.13225065       0.52026099       0.01020779       0.06897272
Li       0.30034630      -0.18641762       6.27063010        9      -0.96842424      -0.24547199       0.31779822       0.16460823       0.01448278       0.18439648
Li       2.99968865       3.82938161      -0.03147575       10      -0.20692700       0.07574129      -0.06456741       0.25671920       0.09046330      -0.11696283
Li      -0.37895687       3.47237542       6.65366646       11      -0.10163702      -0.56277572      -0.36616695       0.16575862       0.31274259      -0.13997875
P        0.81354550       1.86077617       1.02302961       12      -0.64170215       0.04891114      -0.71958024      -0.78184342       0.98323905       0.44873041
P        5.29495938       5.94439419      11.90047686       13       0.36696380       0.49464486       0.11905111      -0.16238630       0.87780547       0.19251183
P        3.97448331       6.14675938       5.40691347       14       0.99380999       0.09832810      -0.06951423       1.07319582      -0.84953183       0.29971582
P        2.27005244       2.08389203       7.75737531       15      -0.43326911      -1.14753506       0.40487455       0.32389429       0.95025873       0.06409360
S        4.89929040       1.95306208       1.23689534       16      -0.76171175       1.22383811      -0.17950596       0.71971726      -0.33583671      -0.14067289
S        1.21399276       5.96026805      12.00482466       17       1.68572443       0.14230119       1.27757530      -0.88465047      -0.30797377      -0.65585607
S        1.98534496       6.10358706       5.14557014       18       0.25592822      -0.44995749       1.01007919      -0.52530253       0.24814332       0.12903687
S        4.37004539       2.12318943       7.92531913       19       2.26397612       1.08134284      -0.49497966      -1.13933432      -0.30170834       0.30927989
S        1.63658620       1.90762283      12.15772257       20       0.17599838      -0.82290008      -1.14698124      -0.06213196      -0.09084576      -0.20610930
S        4.36530187       5.91471313       0.72514054       21      -1.02335929      -0.13003726      -0.21845483       0.03568193      -0.05333465       0.14771205
S        4.88910699       6.19521321       7.33267665       22       0.30871709       0.81332482       0.98071989      -0.46152008      -0.26273990      -0.46140558
S        1.56775491       2.08483786       5.77206190       23       0.56605700      -0.38464107       1.66626146      -0.06159568      -0.26884541       0.18796065
S        1.45163355       0.13590193       1.89122488       24      -2.09055585      -0.55923229       0.29001839       0.08944082      -0.06329251       0.24828470
S        4.59918299       7.75738958      11.06981091       25      -0.03879423       0.48995150       0.13385561       0.28669912      -0.78162569       0.27029765
S        4.79214762       7.75498656       4.46781718       26       2.10001182      -0.37093145      -0.11499467      -0.01947217       0.49397117       0.09051696
S        1.48165043       0.38998767       8.59333498       27       0.12251469       0.60398802      -0.08486170       0.39372897       0.00473295      -0.67319465
S        4.58563105       4.22128258      11.03770487       28       0.11420851      -0.50885302      -0.07089142      -0.05220546       0.14023596       0.14467236
S        1.51798611       3.68306818       1.79357695       29      -0.87703586      -0.04064555      -1.15666656       0.02636770      -0.55786788       0.40567192
S        1.50332447       3.88758156       8.58515676       30      -0.13851536       1.23116060      -0.99902156       0.13618076      -0.85716045      -0.46745583
S        4.68334197       4.34404618       4.61646052       31      -0.00183984       0.21504167       0.22452035      -0.05246153       0.19310586      -0.04024471
32
Lattice="6.17176593 0.0 0.0 0.0 8.01859859 0.0 0.0 0.0 13.03281824" Properties=species:S:1:pos:R:3:spacegroup_kinds:I:1:momenta:R:3:forces:R:3 spacegroup="P 1" unit_cell=conventional occupancy="_JSON {\"0\": {\"Li\": 1}, \"1\": {\"Li\": 1}, \"2\": {\"Li\": 1}, \"3\": {\"Li\": 1}, \"4\": {\"Li\": 1}, \"5\": {\"Li\": 1}, \"6\": {\"Li\": 1}, \"7\": {\"Li\": 1}, \"8\": {\"Li\": 1}, \"9\": {\"Li\": 1}, \"10\": {\"Li\": 1}, \"11\": {\"Li\": 1}, \"12\": {\"P\": 1}, \"13\": {\"P\": 1}, \"14\": {\"P\": 1}, \"15\": {\"P\": 1}, \"16\": {\"S\": 1}, \"17\": {\"S\": 1}, \"18\": {\"S\": 1}, \"19\": {\"S\": 1}, \"20\": {\"S\": 1}, \"21\": {\"S\": 1}, \"22\": {\"S\": 1}, \"23\": {\"S\": 1}, \"24\": {\"S\": 1}, \"25\": {\"S\": 1}, \"26\": {\"S\": 1}, \"27\": {\"S\": 1}, \"28\": {\"S\": 1}, \"29\": {\"S\": 1}, \"30\": {\"S\": 1}, \"31\": {\"S\": 1}}" energy=-139.45652770996094 free_energy=-139.45652770996094 stress="-0.011437873356044292 -0.0026167253963649273 -0.003538629738613963 -0.0026167253963649273 -0.010884527117013931 -0.0027893369551748037 -0.003538629738613963 -0.0027893369551748037 -0.008471340872347355" pbc="T T T"
Li       2.31093128       0.21305067       4.14327021        0      -0.02962133       0.52027610       0.14829130       0.16428058       0.06612544      -0.02386681
Li       3.82019351       7.99370540       8.80925611        1       0.02495388       0.07754462       0.16958672       0.65530562      -0.40314555       0.09769201
Li       5.27425226       7.48812508       2.05756936        2      -0.53209875       0.48371332       0.01590059      -0.11349847       0.28745198       0.18489885
Li       0.67926289       0.15354262      10.87317614        3       0.24756892      -0.09796874      -0.22400432       0.07519510      -0.17363615      -0.41057065
Li       3.88610551       4.39660259       8.77767650        4       0.48752301       0.47272016      -0.49597085      -0.06584227       0.01933030       0.02912889
Li       2.20562476       3.87745884       4.23490049        5       0.04152089       0.67069720       0.15087438       0.09509055      -0.05429117       0.05813215
Li       0.81941641       3.73818337      10.68944722        6      -0.17627888       0.16080126       0.29922340       0.03710807       0.01492045       0.03783290
Li       5.29244646       4.29853489       2.32379544        7       0.26988307      -0.09399182      -0.46384785       0.12619458      -0.16069642      -0.24361043
Li       2.73494294      -0.22706461      -0.07646932        8       0.36372668      -0.20270255       0.28312645       0.14389713      -0.08204342      -0.08916166
Li       0.35037177      -0.12682944       6.58598421        9       0.29338705       0.40143640      -0.14481276      -0.02142409      -0.15783408      -0.23055400
Li       3.20861118       3.69212180      -0.10026610       10       0.35757549      -0.44575342      -0.28843748       0.00521598      -0.10489202       0.12378971
Li      -0.13282614       3.59718057       6.45519003       11       0.45199411       0.69971778       0.43934168      -0.08827705       0.00864783       0.08830737
P        0.64783968       1.97033245       1.00168351       12       0.55361714       0.49857701      -0.00619333       0.24784623      -0.05949784      -0.01303365
P        5.34233704       5.97236184      11.99586543       13       0.48947159      -1.02134503       0.21822416      -1.21224129       1.35151207       0.26991335
P        4.11941302       6.12057795       5.46482433       14       0.17534798       1.02745939      -0.28006058      -0.52717102      -0.19536895      -0.72961152
P        2.35281727       2.13265916       7.71829506       15      -1.52933043      -1.39369853      -1.15902891      -1.15916371      -0.56206453      -0.16700692
S        4.80690578       2.07768038       1.22360820       16      -1.87512647      -0.34182988      -0.52839835      -0.16254695      -0.31714353      -0.00956979
S        1.14247228       5.94380288      11.93464717       17      -0.85915905      -0.11870200      -1.14583905       1.19732571       0.14200684       0.00474205
S        2.04839476       6.12964108       5.25894798       18       0.94871437       0.18350570       1.23792094       0.26318938      -0.06272975       0.00556768