32
Lattice="6.17176593 0.0 0.0 0.0 8.01859859 0.0 0.0 0.0 13.03281824" Properties=species:S:1:pos:R:3:spacegroup_kinds:I:1:forces:R:3 spacegroup="P 1" unit_cell=conventional occupancy="_JSON {\"0\": {\"Li\": 1}, \"1\": {\"Li\": 1}, \"2\": {\"Li\": 1}, \"3\": {\"Li\": 1}, \"4\": {\"Li\": 1}, \"5\": {\"Li\": 1}, \"6\": {\"Li\": 1}, \"7\": {\"Li\": 1}, \"8\": {\"Li\": 1}, \"9\": {\"Li\": 1}, \"10\": {\"Li\": 1}, \"11\": {\"Li\": 1}, \"12\": {\"P\": 1}, \"13\": {\"P\": 1}, \"14\": {\"P\": 1}, \"15\": {\"P\": 1}, \"16\": {\"S\": 1}, \"17\": {\"S\": 1}, \"18\": {\"S\": 1}, \"19\": {\"S\": 1}, \"20\": {\"S\": 1}, \"21\": {\"S\": 1}, \"22\": {\"S\": 1}, \"23\": {\"S\": 1}, \"24\": {\"S\": 1}, \"25\": {\"S\": 1}, \"26\": {\"S\": 1}, \"27\": {\"S\": 1}, \"28\": {\"S\": 1}, \"29\": {\"S\": 1}, \"30\": {\"S\": 1}, \"31\": {\"S\": 1}}" energy=-140.31869506835938 free_energy=-140.31869506835938 stress="-0.007170633412897587 -8.784676985840179e-09 6.480473491166094e-09 -8.784676985840179e-09 -0.00825943797826767 -3.935329395687859e-09 6.480473491166094e-09 -3.935329395687859e-09 -0.0052663302049040794" pbc="T T T"
Li       2.40329652       0.26860172       4.33400832        0      -0.02603517       0.00549128      -0.00432117
Li       3.76846941       7.74999687       8.69880992        1       0.02603646      -0.00549229       0.00432284
Li       5.48917948       7.74999687       2.18240080        2      -0.02603549      -0.00549059       0.00432296
Li       0.68258645       0.26860172      10.85041744        3       0.02603534       0.00549246      -0.00431911
Li       3.76846941       4.27790102       8.69880992        4       0.02603645       0.00549161       0.00432273
Li       2.40329652       3.74069757       4.33400832        5      -0.02603574      -0.00549111      -0.00432100
Li       0.68258645       3.74069757      10.85041744        6       0.02603619      -0.00549217      -0.00431966
Li       5.48917948       4.27790102       2.18240080        7      -0.02603645       0.00549132       0.00432289
Li       3.08588297       0.00000000       0.00000000        8      -0.00000062      -0.00000169       0.00000008
Li       0.00000000       0.00000000       6.51640912        9       0.00000111      -0.00000108      -0.00000073
Li       3.08588297       4.00929929       0.00000000       10      -0.00000000      -0.00000015      -0.00000086
Li       0.00000000       4.00929929       6.51640912       11       0.00000080       0.00000106      -0.00000029
P        0.94051010       2.00464965       1.16601784       12      -0.02067126      -0.00000167       0.02376043
P        5.23125583       6.01394894      11.86680040       13       0.02066575      -0.00000039      -0.02375991
P        4.02639307       6.01394894       5.35039128       14      -0.02066753       0.00000091      -0.02375738
P        2.14537286       2.00464965       7.68242696       15       0.02066888       0.00000020       0.02375709
S        5.08970823       2.00464965       1.30575389       16      -0.25450656       0.00000079       0.01679128
S        1.08205770       6.01394894      11.72706435       17       0.25450745       0.00000085      -0.01679195
S        2.00382526       6.01394894       5.21065523       18      -0.25450641      -0.00000060      -0.01679231
S        4.16794067       2.00464965       7.82216301       19       0.25449991      -0.00000022       0.01679108
S        1.68132889       2.00464965      12.25955363       20       0.10912259       0.00000005      -0.16719621
S        4.49043704       6.01394894       0.77326461       21      -0.10912059       0.00000024       0.16718115
S        4.76721186       6.01394894       7.28967373       22       0.10912058      -0.00000020       0.16717932
S        1.40455407       2.00464965       5.74314451       23      -0.10911946      -0.00000039      -0.16718104
S        1.67233151       0.29287049       2.00524453       24       0.13957776      -0.21272518       0.08709948
S        4.49943442       7.72572810      11.02757371       25      -0.13957572       0.21272470      -0.08709206
S        4.75821447       7.72572810       4.51116459       26       0.13957459       0.21272370      -0.08709297
S        1.41355146       0.29287049       8.52165365       27      -0.13957544      -0.21272069       0.08709218
S        4.49943442       4.30216979      11.02757371       28      -0.13957717      -0.21272480      -0.08709308
S        1.67233151       3.71642880       2.00524453       29       0.13957874       0.21272723       0.08709819
S        1.41355146       3.71642880       8.52165365       30      -0.13957497       0.21272127       0.08709225
S        4.75821447       4.30216979       4.51116459       31       0.13957581      -0.21272442      -0.08709447
