56
Lattice="10.7619164 0.0 0.0 -9.665296305262016 4.732958053065482 0.0 -0.5483100463354086 -2.3664790220718444 10.484177494289693" Properties=species:S:1:pos:R:3:spacegroup_kinds:I:1:forces:R:3 spacegroup="P 1" unit_cell=conventional occupancy="_JSON {\"0\": {\"H\": 1}, \"1\": {\"H\": 1}, \"2\": {\"H\": 1}, \"3\": {\"H\": 1}, \"4\": {\"H\": 1}, \"5\": {\"H\": 1}, \"6\": {\"H\": 1}, \"7\": {\"H\": 1}, \"8\": {\"H\": 1}, \"9\": {\"H\": 1}, \"10\": {\"H\": 1}, \"11\": {\"H\": 1}, \"12\": {\"H\": 1}, \"13\": {\"H\": 1}, \"14\": {\"H\": 1}, \"15\": {\"H\": 1}, \"16\": {\"H\": 1}, \"17\": {\"H\": 1}, \"18\": {\"H\": 1}, \"19\": {\"H\": 1}, \"20\": {\"H\": 1}, \"21\": {\"H\": 1}, \"22\": {\"H\": 1}, \"23\": {\"H\": 1}, \"24\": {\"H\": 1}, \"25\": {\"H\": 1}, \"26\": {\"H\": 1}, \"27\": {\"H\": 1}, \"28\": {\"H\": 1}, \"29\": {\"H\": 1}, \"30\": {\"H\": 1}, \"31\": {\"H\": 1}, \"32\": {\"C\": 1}, \"33\": {\"C\": 1}, \"34\": {\"C\": 1}, \"35\": {\"C\": 1}, \"36\": {\"C\": 1}, \"37\": {\"C\": 1}, \"38\": {\"C\": 1}, \"39\": {\"C\": 1}, \"40\": {\"C\": 1}, \"41\": {\"C\": 1}, \"42\": {\"C\": 1}, \"43\": {\"C\": 1}, \"44\": {\"C\": 1}, \"45\": {\"C\": 1}, \"46\": {\"C\": 1}, \"47\": {\"C\": 1}, \"48\": {\"O\": 1}, \"49\": {\"O\": 1}, \"50\": {\"O\": 1}, \"51\": {\"O\": 1}, \"52\": {\"O\": 1}, \"53\": {\"O\": 1}, \"54\": {\"O\": 1}, \"55\": {\"O\": 1}}" energy=-315.2104187011719 free_energy=-315.2104187011719 stress="0.0014446299755945802 -0.0005629085353575647 7.478221419887632e-08 -0.0005629085353575647 -0.0008545495220459998 -6.085821269152802e-08 7.478221419887632e-08 -6.085821269152802e-08 0.001575617236085236" pbc="T T T"
H       -0.01146673       2.27735378       1.83228362        0       0.05954261      -0.00327674       0.06233808
H        0.46354042      -0.32622645       8.65189389        1      -0.05491671       0.02317709      -0.06235509
H        7.11783644      -0.62125596       5.76730110        2       0.06303600      -0.00415087      -0.05874505
H        3.54784285       0.20590514       4.71687609        3      -0.05845404       0.02398662       0.05874137
H        5.94073500       0.08912526       3.40980511        4      -0.05953996       0.00327761      -0.06233680
H        4.91741780       0.32622654       7.07437241        5       0.05491456      -0.02316868       0.06236481
H       -1.73687826       0.62125611       9.95896513        6      -0.06303751       0.00415923       0.05874456
H        2.38142539       2.16057389       0.52521270        7       0.05845541      -0.02398829      -0.05874263
H       -1.38551755       1.18149074       2.11598469        8      -0.01113741       0.08955114       0.00594893
H       -8.44966009       2.81824229       8.36819218        9       0.04931279       0.07553634      -0.00592642
H       -2.58205883       2.70548917       6.85853645       10       0.02489236       0.08117910       0.03102907
H       -6.70482302       3.66072964       3.62563947       11       0.01337854       0.08383606      -0.03101397
H       -3.44713062       1.18498830       3.12610408       12       0.01115916      -0.08955124      -0.00594443
H       -6.59659445       1.91471577       7.35807408       13      -0.04930702      -0.07554582       0.00593403
H       -1.70227922       2.02746897       8.86772962       14      -0.02490149      -0.08118939      -0.03099558
H       -7.79312147       3.43870743       1.61644925       15      -0.01337429      -0.08383945       0.03100582
H       -0.77623955       0.71965044       4.36329758       16      -0.01323447      -0.01213613       0.02308661
H        1.56195590       2.67141834       6.12088029       17       0.00653505      -0.01672816      -0.02309652
H       -0.46326720       1.89389614       6.16073603       18       0.01919778      -0.01968133       0.01018707
H        0.70065483      -0.86930481       4.32344241       19      -0.02583034      -0.00920606      -0.01018343
H        6.70550785       1.64682866       0.87879113       20       0.01323267       0.01213485      -0.02308437
H       -5.84629404       2.06153966       9.60538593       21      -0.00653609       0.01672543       0.02309438
H        5.84422537      -1.89389611       9.56553024       22      -0.01918967       0.01966869      -0.01017757
H       -5.53330301       3.23578383       0.91864627       23       0.02584084       0.00921568       0.01018910
H        0.25118893       0.51320651       1.94904363       24      -0.01401083      -0.01703124      -0.02868444
H       -0.54820845      -1.79509607       8.53513265       25       0.00518991      -0.02145233       0.02867873
H       -2.80824660       2.46883415       5.11321221       26      -0.03240768      -0.01272041       0.00990991
H       -6.60574339       3.34870703       5.37096440       27       0.02347674      -0.02566466      -0.00992737
H       -5.08383701       1.85327247       3.29304512       28       0.01400428       0.01703831       0.02868862
H       -4.83274950       1.79509621       7.19113351       29      -0.00520891       0.02144467      -0.02866498
H       -0.92778153       4.63060280       0.12887635       30       0.03240975       0.01272166      -0.00991070
H        2.32140525       1.38425107      10.35530181       31      -0.02347607       0.02567154       0.00991877
C       -0.12855715       1.44666453       3.84724416       32      -0.06474358      -0.02297562       0.02710962
C        0.20337420      -1.12376650       6.63693320       33       0.04808792      -0.04911543      -0.02705806
C       -0.77313049       2.84277401       5.69386796       34       0.01803017      -0.04222342       0.05795861
C        1.39625478      -0.15339357       4.79030935       35      -0.03474212      -0.02990893      -0.05791858
C        6.05782526       0.91981441       1.39484460       36       0.06475835       0.02297448      -0.02710590
C       -5.58433220       1.12376665       9.08933301       37      -0.04809074       0.04911588       0.02707815
C       -3.51120742       1.89018399      10.03239814       38      -0.01806939       0.04223165      -0.05796775
C        4.53301349       2.51987246       0.45177956       39       0.03474608       0.02992356       0.05791117
C       -0.32629464       1.35816529       2.34320611       40       0.01375102       0.00372909      -0.01267985
C        0.34204071      -1.29021280       8.14097361       41      -0.01072509       0.00946212       0.01264206
C       -2.26788800       3.05478921       5.86652618       42      -0.01084268       0.00948890      -0.01264103
C        2.83194262      -0.62035932       4.61765398       43       0.01386534       0.00375849       0.01261375
C        6.25556282       1.00831377       2.89888265       44      -0.01376742      -0.00373855       0.01266716
C       -5.72299917       1.29021260       7.58529265       45       0.01074390      -0.00945151      -0.01267796
C       -2.01645026       1.67816877       9.85974053       46       0.01086767      -0.00949097       0.01260878
C        3.09732574       2.98683831       0.62443475       47      -0.01388370      -0.00375992      -0.01259657
O       -0.42617555       2.75832690       4.28195552       48      -0.00160975      -0.01560055      -0.00606890
O        1.04750943      -0.07664206       6.20222130       49      -0.00535176      -0.01474603       0.00605981
O       -1.17299330      -0.80891944       6.27987373       50      -0.00940626      -0.01381336      -0.00193703
O        1.24603231       1.12411995       4.20430307       51       0.00225701      -0.01656871       0.00193533
O       -3.30985251       4.34111019       0.96013316       52       0.00160909       0.01560144       0.00606085
O        4.33344869       0.07664206       9.52404497       53       0.00534941       0.01474200      -0.00606667
O       -4.20796491       0.80891948       9.44639258       54       0.00941702       0.01382543       0.00193594
O        4.68323599       1.24235914       1.03778562       55      -0.00226702       0.01654634      -0.00193274
