13
Lattice="7.26870274 0.0 0.0 3.634351370000001 6.294881225397555 0.0 3.634351370000001 2.0982937417991856 5.934870934989993" Properties=species:S:1:pos:R:3:spacegroup_kinds:I:1:momenta:R:3:forces:R:3 spacegroup="P 1" unit_cell=conventional occupancy="_JSON {\"0\": {\"Li\": 1}, \"1\": {\"Li\": 1}, \"2\": {\"Li\": 1}, \"3\": {\"Li\": 1}, \"4\": {\"Li\": 1}, \"5\": {\"Li\": 1}, \"6\": {\"P\": 1}, \"7\": {\"S\": 1}, \"8\": {\"S\": 1}, \"9\": {\"S\": 1}, \"10\": {\"S\": 1}, \"11\": {\"S\": 1}, \"12\": {\"Cl\": 1}}" energy=-53.660221099853516 free_energy=-53.660221099853516 stress="-0.0025927333626896143 0.00044257380068302155 -0.0034619225189089775 0.00044257380068302155 0.008407593704760075 0.00029910041484981775 -0.0034619225189089775 0.00029910041484981775 0.0009932670509442687" pbc="T T T"
Li       8.96218893       7.50513178       3.83655211        0       0.18586979      -0.01158868      -0.64871596       0.04091506       0.21950418      -0.19836833
Li      12.14748219       4.51905106       5.59723810        1       0.21956716      -0.50260002       0.01182468       0.05552448      -0.01588430      -0.09584239
Li       8.81151414       5.81092142       5.77742651        2       0.41746509      -0.35827950      -0.04119829       0.36078545       0.00788803       0.38842332
Li      12.14865566       6.97137606       2.63538542        3       0.86563977       0.65596467      -0.06253053       0.28194025       0.10544138       0.00853045
Li      10.32705267       4.83852385       2.42588927        4       0.01740836       0.39677490       0.03548490       0.36729279       0.12805064       0.16253069
Li      11.01715968       8.05221490       5.81386535        5      -0.98224553       0.03300500       0.44944255       0.00631199       0.13353670       0.08387887
P        7.14163752       4.28458932       2.90137724        6       1.57545440      -0.87588413       0.20625599      -0.49235511       0.81517017       0.21867034
S        7.36236169       6.34021333       2.37461966        7       0.54292074       1.15417430      -0.82317911      -0.32194048      -0.75792634      -0.11247782
S        8.66802385       3.27257357       2.08449382        8      -0.65216961      -0.20500301       0.24870960       0.65653604      -0.84536058      -0.51360720
S        5.38422261       3.30968209       2.43800955        9      -0.42493543       0.51371109       0.50433901      -0.05274329       0.29329383      -0.22248375
S        7.35476901       4.22247826       4.93261775       10      -0.31657330      -0.19627832       0.60276608      -0.42900363      -0.41721487       0.54197621
S       10.84272867       6.11680641       4.42806314       11      -0.19411807       0.30652259      -0.29446583      -0.33411556       0.31377262      -0.13831753
Cl       0.83548894      -0.22574045       0.23666415       12      -1.25428334      -0.91051884      -0.18873313      -0.13914809       0.01972845      -0.12291270
