13
Lattice="7.26870274 0.0 0.0 3.634351370000001 6.294881225397555 0.0 3.634351370000001 2.0982937417991856 5.934870934989993" Properties=species:S:1:pos:R:3:spacegroup_kinds:I:1:momenta:R:3:forces:R:3 spacegroup="P 1" unit_cell=conventional occupancy="_JSON {\"0\": {\"Li\": 1}, \"1\": {\"Li\": 1}, \"2\": {\"Li\": 1}, \"3\": {\"Li\": 1}, \"4\": {\"Li\": 1}, \"5\": {\"Li\": 1}, \"6\": {\"P\": 1}, \"7\": {\"S\": 1}, \"8\": {\"S\": 1}, \"9\": {\"S\": 1}, \"10\": {\"S\": 1}, \"11\": {\"S\": 1}, \"12\": {\"Cl\": 1}}" energy=-53.3634147644043 free_energy=-53.3634147644043 stress="-0.0007941934745758772 -2.4418216071353527e-07 -1.5143912435178208e-07 -2.4418216071353527e-07 -0.0007939314236864448 -1.1470381622302739e-07 -1.5143912435178208e-07 -1.1470381622302739e-07 -0.0007939136703498662" pbc="T T T"
Li       9.25387995       7.24703237       3.10460814        0       0.00000000       0.00000000       0.00000000       0.00422565      -0.00243451       0.00344859
Li      12.55222827       5.34273008       5.79769826        1       0.00000000       0.00000000       0.00000000      -0.00421175       0.00243323      -0.00344166
Li       9.25387995       5.34273008       5.79769826        2       0.00000000       0.00000000       0.00000000       0.00422496       0.00243910      -0.00344707
Li      12.55222827       7.24703237       3.10460814        3       0.00000000       0.00000000       0.00000000      -0.00421293      -0.00243116       0.00344219
Li      10.90305411       4.39057894       3.10460814        4       0.00000000       0.00000000       0.00000000       0.00000243       0.00487570       0.00344773
Li      10.90305411       8.19918351       5.79769826        5       0.00000000       0.00000000       0.00000000       0.00000225      -0.00486397      -0.00344183
P        7.26870274       4.19658748       2.96743547        6       0.00000000       0.00000000       0.00000000       0.00008567       0.00004563       0.00003600
S        7.26870637       6.13578650       2.28182731        7       0.00000000       0.00000000       0.00000000      -0.00001799      -0.01090910       0.00384755
S        8.94810016       3.22699113       2.28182731        8       0.00000000       0.00000000       0.00000000      -0.00945786       0.00544026       0.00384768
S        5.58931258       3.22699113       2.28182731        9       0.00000000       0.00000000       0.00000000       0.00937852       0.00541299       0.00383026
S        7.26870637       4.19658958       5.02426588       10       0.00000000       0.00000000       0.00000000      -0.00001848      -0.00000878      -0.01157007
S       10.90305411       6.29488123       4.45115320       11       0.00000000       0.00000000       0.00000000      -0.00000203      -0.00000004      -0.00000075
Cl       0.00000000       0.00000000       0.00000000       12       0.00000000       0.00000000       0.00000000       0.00000152       0.00000069       0.00000137
13
Lattice="7.26870274 0.0 0.0 3.634351370000001 6.294881225397555 0.0 3.634351370000001 2.0982937417991856 5.934870934989993" Properties=species:S:1:pos:R:3:spacegroup_kinds:I:1:momenta:R:3:forces:R:3 spacegroup="P 1" unit_cell=conventional occupancy="_JSON {\"0\": {\"Li\": 1}, \"1\": {\"Li\": 1}, \"2\": {\"Li\": 1}, \"3\": {\"Li\": 1}, \"4\": {\"Li\": 1}, \"5\": {\"Li\": 1}, \"6\": {\"P\": 1}, \"7\": {\"S\": 1}, \"8\": {\"S\": 1}, \"9\": {\"S\": 1}, \"10\": {\"S\": 1}, \"11\": {\"S\": 1}, \"12\": {\"Cl\": 1}}" energy=-53.37410354614258 free_energy=-53.37410354614258 stress="-0.0018184598302468657 -0.003954180516302586 -0.003730654949322343 -0.003954180516302586 -0.002291823970153928 -8.821938536129892e-06 -0.003730654949322343 -8.821938536129892e-06 0.003304388141259551" pbc="T T T"
Li       9.22203365       7.28100600       3.17304876        0       0.36488420      -0.05102331       0.30207111       0.01187261       0.16469043      -0.06879054
Li      12.47343234       5.30081091       5.79220679        1      -0.30541790      -0.33584823      -0.32975546       0.00776443      -0.21262977       0.00767114
Li       8.99670257       5.67292031       5.75258954        2      -0.32427275       0.59131673       0.37314353       0.01607662       0.06681201       0.19840741
Li      12.44888513       7.05263198       2.89077877        3      -0.21773857      -0.59296531      -0.27383694      -0.09420622       0.02209200      -0.14882940
Li      10.78481806       4.50260835       2.96739348        4      -0.27611320       0.26178436      -0.10212023       0.12887883      -0.13429734      -0.06319556
Li      10.70081330       8.18504330       5.75770509        5      -0.46981141      -0.18260094      -0.48513861      -0.07067996       0.12573607       0.12179776
P        7.30331213       4.17632887       2.96358171        6      -0.65172078      -0.52238704       0.15769191      -0.18929109      -0.05415271       0.28530657
S        7.34263409       6.11594520       2.26006914        7       0.63014543       0.46818116      -0.37319023       0.01985762      -0.13684927       0.04561088
S        8.91606839       3.10386797       2.27062220        8      -0.51913796      -0.21252056       0.08064382       0.16319261       0.29366237       0.12914217
S        5.60608695       3.25476755       2.31417156        9       0.56784717      -0.81489537       0.02997091      -0.40836847       0.00497360      -0.26208717
S        7.25161358       4.16946224       5.04520723       10      -0.02117692       0.06807071      -0.43551651       0.16149950       0.19160414      -0.34089711
S       10.88020462       6.29530486       4.46074738       11      -0.01421764       0.68440846      -0.13522042      -0.20426363      -0.02841779      -0.14332423
Cl       0.10827873       0.10176429       0.04907957       12       1.23673035       0.63847934       1.19125712       0.45766705      -0.30322376       0.23918819
13
Lattice="7.26870274 0.0 0.0 3.634351370000001 6.294881225397555 0.0 3.634351370000001 2.0982937417991856 5.934870934989993" Properties=species:S:1:pos:R:3:spacegroup_kinds:I:1:momenta:R:3:forces:R:3 spacegroup="P 1" unit_cell=conventional occupancy="_JSON {\"0\": {\"Li\": 1}, \"1\": {\"Li\": 1}, \"2\": {\"Li\": 1}, \"3\": {\"Li\": 1}, \"4\": {\"Li\": 1}, \"5\": {\"Li\": 1}, \"6\": {\"P\": 1}, \"7\": {\"S\": 1}, \"8\": {\"S\": 1}, \"9\": {\"S\": 1}, \"10\": {\"S\": 1}, \"11\": {\"S\": 1}, \"12\": {\"Cl\": 1}}" energy=-53.53164291381836 free_energy=-53.53164291381836 stress="0.00790694635361433 -0.0016364959301427007 -0.005154351703822613 -0.0016364959301427007 -0.0016208990709856153 0.007262540515512228 -0.005154351703822613 0.007262540515512228 0.0001169161478173919" pbc="T T T"
Li       9.25779937       7.38060241       3.25724418        0      -0.55717084      -0.43709801       0.12752962      -0.21414399      -0.18935938      -0.03519512
Li      12.19762303       4.77783151       5.79776207        1      -0.45491669      -0.83376331       0.30760414      -0.15570210       0.17840697      -0.22770675
Li       8.64861403       6.18328507       6.01011833        2      -0.29003293       0.38499821      -0.05207146       0.13378219       0.03274314      -0.27620432
Li      12.09114285       7.06015163       2.34673080        3      -0.39055120       0.37923409      -0.70013945      -0.03539436      -0.25832003       0.33771059
Li      10.81724205       4.33179298       3.05313464        4       0.11350733       0.00676785       0.30802861      -0.09098248       0.22419760       0.18665640
Li      10.69833626       8.36549376       5.90496937        5       0.10131368       0.01980360      -0.04819565       0.04471364      -0.51617390      -0.82497978
P        7.27048625       4.24668555       2.93385521        6      -0.23864573      -0.28000346       1.14153742      -0.13303709      -1.86419630       0.30760199
S        7.39173452       6.07950981       2.20415903        7      -0.22132655       0.61750024      -1.39245067      -0.26119858       1.22787690       0.14627552
S        8.89869851       3.12730904       2.26129486        8      -0.33999129      -0.67848015      -0.61269257      -0.06785426       0.17918186      -0.02416752
S        5.55769323       3.17910823       2.29598313        9      -0.59621065       1.20078979      -0.47728664       0.27035716       0.74390966      -0.10305358
S        7.30725601       4.23664115       4.99257990       10       0.47683163       0.60303373       0.06404366      -0.12088984       0.36558443       0.07422526
S       10.82632404       6.28848177       4.41801674       11      -0.13154075      -0.17499206      -0.39551554       0.12999071      -0.06929843       0.32511580
Cl       0.32971321       0.04569720       0.22938225       12       2.52873400      -0.80779051       1.72960853       0.50035894      -0.05455244       0.11372145
13
Lattice="7.26870274 0.0 0.0 3.634351370000001 6.294881225397555 0.0 3.634351370000001 2.0982937417991856 5.934870934989993" Properties=species:S:1:pos:R:3:spacegroup_kinds:I:1:momenta:R:3:forces:R:3 spacegroup="P 1" unit_cell=conventional occupancy="_JSON {\"0\": {\"Li\": 1}, \"1\": {\"Li\": 1}, \"2\": {\"Li\": 1}, \"3\": {\"Li\": 1}, \"4\": {\"Li\": 1}, \"5\": {\"Li\": 1}, \"6\": {\"P\": 1}, \"7\": {\"S\": 1}, \"8\": {\"S\": 1}, \"9\": {\"S\": 1}, \"10\": {\"S\": 1}, \"11\": {\"S\": 1}, \"12\": {\"Cl\": 1}}" energy=-53.59974670410156 free_energy=-53.59974670410156 stress="-0.0012010602513328195 -0.006408025976270437 -0.001695898943580687 -0.006408025976270437 -0.0022950456477701664 -0.00018323937547393143 -0.001695898943580687 -0.00018323937547393143 0.0016901527997106314" pbc="T T T"
Li       8.90971517       7.30633924       3.32683519        0       0.12030078       0.69075733       0.46548675       0.11738756       0.31654978      -0.04497340
Li      12.04010515       4.33121158       5.66544868        1       0.24850487       0.50799000      -0.06361220       0.17186855       0.31777692       0.00508183
Li       8.81645864       6.10474700       5.87530802        2       0.63881143      -0.28195610       0.07930836       0.04449555      -0.06309506       0.11847764
Li      11.85186964       7.02080675       2.59964584        3       0.32598396      -0.27163397       0.37767955       0.56634009       0.14708890      -0.49967492
Li      10.61698190       4.35080060       3.07210843        4       0.14494028       0.11154130      -0.22401147       0.25788066       0.09427822      -0.07251403
Li      11.24875781       8.05659939       5.63011829        5       0.81263028       0.36358566       0.78888120      -0.07402465       0.30491996       0.13731998
P        7.24296974       4.29343753       2.93672361        6      -0.34612507       1.24311595       0.19175410       0.06433925      -0.99778241       1.03110278
S        7.21136734       6.13624240       2.15736804        7      -2.12594115      -0.81730242       0.43482891       0.13181622       0.81290865      -0.11963716
S        8.86341274       3.17828793       2.27861798        8       0.08237627       0.83094310      -0.74832566      -0.52601165      -0.28872386      -0.46574825
S        5.47964009       3.39320617       2.35097406        9      -0.80192569       0.24756778       0.31329513      -0.01865929      -0.57224452      -0.03081810
S        7.33872965       4.22184620       5.04799288       10      -0.27740759      -0.74829745      -0.52829589      -0.13433886       0.21657044      -0.53837603
S       10.72887804       6.21283080       4.34712482       11      -1.73380913      -1.72636406      -0.49758083      -0.24286830      -0.26452282       0.63006496
Cl       0.72466839      -0.02310594       0.25717098       12       2.91166075      -0.14994714      -0.58940794      -0.35822514      -0.02372409      -0.15030524
13
Lattice="7.26870274 0.0 0.0 3.634351370000001 6.294881225397555 0.0 3.634351370000001 2.0982937417991856 5.934870934989993" Properties=species:S:1:pos:R:3:spacegroup_kinds:I:1:momenta:R:3:forces:R:3 spacegroup="P 1" unit_cell=conventional occupancy="_JSON {\"0\": {\"Li\": 1}, \"1\": {\"Li\": 1}, \"2\": {\"Li\": 1}, \"3\": {\"Li\": 1}, \"4\": {\"Li\": 1}, \"5\": {\"Li\": 1}, \"6\": {\"P\": 1}, \"7\": {\"S\": 1}, \"8\": {\"S\": 1}, \"9\": {\"S\": 1}, \"10\": {\"S\": 1}, \"11\": {\"S\": 1}, \"12\": {\"Cl\": 1}}" energy=-53.292972564697266 free_energy=-53.292972564697266 stress="-0.006570334546267986 0.005137389060109854 0.0022820751182734966 0.005137389060109854 0.00954409595578909 0.0021731657907366753 0.0022820751182734966 0.0021731657907366753 -0.0005501358537003398" pbc="T T T"
Li       9.02367528       7.63999002       3.70889687        0       0.24878707      -0.40787099       0.96873831      -0.18425988      -0.17660655       0.15195499
Li      12.29531354       4.57106006       5.68566480        1       0.26232119       0.25236761      -0.11528081      -0.48353827       0.00623254      -0.20446774
Li       9.08418051       5.91601204       6.09612651        2      -0.23049521       0.02070972       0.08076365      -0.22085643       0.20405670      -0.63251698
Li      12.22699308       6.81731474       2.54195606        3      -0.53103896       0.21673364       0.11062688      -0.49385148       0.22760573       0.17951685
Li      10.67185557       4.60898280       2.58689405        4      -0.31352613       0.66007392      -0.77142048      -0.21232682       0.08997270       0.17391658
Li      11.60815310       8.22659142       5.76517259        5      -0.11534281      -0.14904754      -0.49621900      -0.34572268      -0.25606060      -0.00419986
P        7.20006288       4.25463395       2.92529046        6      -0.90902323       0.98089167      -1.46831223      -1.41362476       1.01103830       0.32166165
S        7.14292558       6.26853991       2.32141157        7       1.50590737      -0.10225988       2.14013597       1.04723477      -0.73670948       0.13095507
S        8.72701270       3.25509195       2.13391996        8      -0.97683268       0.21446372      -0.77241262       0.73293543      -0.67191732      -0.37215906
S        5.37283209       3.31556876       2.31837247        9       0.24237287      -0.32642677       0.09801626       0.78364557      -0.06640718       0.73088115
S        7.27231373       4.20118280       4.98588609       10      -0.18871051      -0.70251074      -0.50611445       0.29941726      -0.04081688      -0.05971864
S       10.60605908       6.05030598       4.42359832       11       1.52896061      -0.33755426       0.79117626       1.01138902       0.47899795      -0.21055834
Cl       0.93610101      -0.06141024       0.22484410       12      -0.52337957      -0.31957008      -0.05969779      -0.52044165      -0.06938608      -0.20526573
13
Lattice="7.26870274 0.0 0.0 3.634351370000001 6.294881225397555 0.0 3.634351370000001 2.0982937417991856 5.934870934989993" Properties=species:S:1:pos:R:3:spacegroup_kinds:I:1:momenta:R:3:forces:R:3 spacegroup="P 1" unit_cell=conventional occupancy="_JSON {\"0\": {\"Li\": 1}, \"1\": {\"Li\": 1}, \"2\": {\"Li\": 1}, \"3\": {\"Li\": 1}, \"4\": {\"Li\": 1}, \"5\": {\"Li\": 1}, \"6\": {\"P\": 1}, \"7\": {\"S\": 1}, \"8\": {\"S\": 1}, \"9\": {\"S\": 1}, \"10\": {\"S\": 1}, \"11\": {\"S\": 1}, \"12\": {\"Cl\": 1}}" energy=-53.660221099853516 free_energy=-53.660221099853516 stress="-0.0025927333626896143 0.00044257380068302155 -0.0034619225189089775 0.00044257380068302155 0.008407593704760075 0.00029910041484981775 -0.0034619225189089775 0.00029910041484981775 0.0009932670509442687" pbc="T T T"
Li       8.96218893       7.50513178       3.83655211        0       0.18586979      -0.01158868      -0.64871596       0.04091506       0.21950418      -0.19836833
Li      12.14748219       4.51905106       5.59723810        1       0.21956716      -0.50260002       0.01182468       0.05552448      -0.01588430      -0.09584239
Li       8.81151414       5.81092142       5.77742651        2       0.41746509      -0.35827950      -0.04119829       0.36078545       0.00788803       0.38842332
Li      12.14865566       6.97137606       2.63538542        3       0.86563977       0.65596467      -0.06253053       0.28194025       0.10544138       0.00853045
Li      10.32705267       4.83852385       2.42588927        4       0.01740836       0.39677490       0.03548490       0.36729279       0.12805064       0.16253069
Li      11.01715968       8.05221490       5.81386535        5      -0.98224553       0.03300500       0.44944255       0.00631199       0.13353670       0.08387887
P        7.14163752       4.28458932       2.90137724        6       1.57545440      -0.87588413       0.20625599      -0.49235511       0.81517017       0.21867034
S        7.36236169       6.34021333       2.37461966        7       0.54292074       1.15417430      -0.82317911      -0.32194048      -0.75792634      -0.11247782
S        8.66802385       3.27257357       2.08449382        8      -0.65216961      -0.20500301       0.24870960       0.65653604      -0.84536058      -0.51360720
S        5.38422261       3.30968209       2.43800955        9      -0.42493543       0.51371109       0.50433901      -0.05274329       0.29329383      -0.22248375
S        7.35476901       4.22247826       4.93261775       10      -0.31657330      -0.19627832       0.60276608      -0.42900363      -0.41721487       0.54197621
S       10.84272867       6.11680641       4.42806314       11      -0.19411807       0.30652259      -0.29446583      -0.33411556       0.31377262      -0.13831753
Cl       0.83548894      -0.22574045       0.23666415       12      -1.25428334      -0.91051884      -0.18873313      -0.13914809       0.01972845      -0.12291270
