13
Lattice="7.26870274 0.0 0.0 3.634351370000001 6.294881225397555 0.0 3.634351370000001 2.0982937417991856 5.934870934989993" Properties=species:S:1:pos:R:3:spacegroup_kinds:I:1:forces:R:3 spacegroup="P 1" unit_cell=conventional occupancy="_JSON {\"0\": {\"Li\": 1}, \"1\": {\"Li\": 1}, \"2\": {\"Li\": 1}, \"3\": {\"Li\": 1}, \"4\": {\"Li\": 1}, \"5\": {\"Li\": 1}, \"6\": {\"P\": 1}, \"7\": {\"S\": 1}, \"8\": {\"S\": 1}, \"9\": {\"S\": 1}, \"10\": {\"S\": 1}, \"11\": {\"S\": 1}, \"12\": {\"Cl\": 1}}" energy=-53.3634147644043 free_energy=-53.3634147644043 stress="-0.0007941934745758772 -2.4418216071353527e-07 -1.5143912435178208e-07 -2.4418216071353527e-07 -0.0007939314236864448 -1.1470381622302739e-07 -1.5143912435178208e-07 -1.1470381622302739e-07 -0.0007939136703498662" pbc="T T T"
Li       9.25387995       7.24703237       3.10460814        0       0.00422565      -0.00243451       0.00344859
Li      12.55222827       5.34273008       5.79769826        1      -0.00421175       0.00243323      -0.00344166
Li       9.25387995       5.34273008       5.79769826        2       0.00422496       0.00243910      -0.00344707
Li      12.55222827       7.24703237       3.10460814        3      -0.00421293      -0.00243116       0.00344219
Li      10.90305411       4.39057894       3.10460814        4       0.00000243       0.00487570       0.00344773
Li      10.90305411       8.19918351       5.79769826        5       0.00000225      -0.00486397      -0.00344183
P        7.26870274       4.19658748       2.96743547        6       0.00008567       0.00004563       0.00003600
S        7.26870637       6.13578650       2.28182731        7      -0.00001799      -0.01090910       0.00384755
S        8.94810016       3.22699113       2.28182731        8      -0.00945786       0.00544026       0.00384768
S        5.58931258       3.22699113       2.28182731        9       0.00937852       0.00541299       0.00383026
S        7.26870637       4.19658958       5.02426588       10      -0.00001848      -0.00000878      -0.01157007
S       10.90305411       6.29488123       4.45115320       11      -0.00000203      -0.00000004      -0.00000075
Cl       0.00000000       0.00000000       0.00000000       12       0.00000152       0.00000069       0.00000137
