32
Lattice="6.17176593 0.0 0.0 0.0 8.01859859 0.0 0.0 0.0 13.03281824" Properties=species:S:1:pos:R:3:spacegroup_kinds:I:1:momenta:R:3:forces:R:3 spacegroup="P 1" unit_cell=conventional occupancy="_JSON {\"0\": {\"Li\": 1.0}, \"1\": {\"Li\": 1.0}, \"2\": {\"Li\": 1.0}, \"3\": {\"Li\": 1.0}, \"4\": {\"Li\": 1.0}, \"5\": {\"Li\": 1.0}, \"6\": {\"Li\": 1.0}, \"7\": {\"Li\": 1.0}, \"8\": {\"Li\": 1.0}, \"9\": {\"Li\": 1.0}, \"10\": {\"Li\": 1.0}, \"11\": {\"Li\": 1.0}, \"12\": {\"P\": 1.0}, \"13\": {\"P\": 1.0}, \"14\": {\"P\": 1.0}, \"15\": {\"P\": 1.0}, \"16\": {\"S\": 1.0}, \"17\": {\"S\": 1.0}, \"18\": {\"S\": 1.0}, \"19\": {\"S\": 1.0}, \"20\": {\"S\": 1.0}, \"21\": {\"S\": 1.0}, \"22\": {\"S\": 1.0}, \"23\": {\"S\": 1.0}, \"24\": {\"S\": 1.0}, \"25\": {\"S\": 1.0}, \"26\": {\"S\": 1.0}, \"27\": {\"S\": 1.0}, \"28\": {\"S\": 1.0}, \"29\": {\"S\": 1.0}, \"30\": {\"S\": 1.0}, \"31\": {\"S\": 1.0}}" energy=-139.82833862304688 free_energy=-139.82833862304688 stress="-0.0012472126400098205 0.0008865112904459238 -0.00026444648392498493 0.0008865112904459238 0.00201462977565825 -0.0002609241637401283 -0.00026444648392498493 -0.0002609241637401283 -0.0041946531273424625" pbc="T T T"
Li       2.09678567       0.24268418       4.38781101        0      -0.30755881      -0.42588014       0.11314048       0.28219053       0.08571389      -0.13255914
Li       3.73855549       7.81519713       8.65612134        1      -0.17432830       0.45758637       0.06566957       0.11420009      -0.01056078      -0.11892144
Li       5.52422987       7.74511260       2.11250574        2       0.03645694       0.26044128      -0.12910266      -0.19393830       0.09170222       0.06938905
Li       0.79594483       0.42574562      10.79344959        3      -0.06507983       0.03911221      -0.01714990      -0.15617397      -0.09789535       0.22191036
Li       3.44865671       4.41959604       8.72225723        4       0.03646853       0.14229680      -0.50376270       0.17486930      -0.12925965       0.09741265
Li       2.55853387       3.45477887       4.34499473        5       0.09481753      -0.05669411       0.00949891      -0.37678266      -0.02743993       0.36933339
Li       0.72311934       3.81311357      11.02127655        6      -0.12066159       0.07299644       0.11145427       0.13145840      -0.12074663       0.10095924
Li       5.77171443       4.39516314       2.14291398        7       0.24925906       0.23936205      -0.29204606      -0.12013760      -0.02018940       0.09276287
Li       3.03056450       7.79538330      -0.20058951        8      -0.16536894      -0.07750992      -0.46538702      -0.28614858       0.03190101       0.19688652
Li       0.18054973       7.65263303       6.49418616        9       0.09996721      -0.51935998       0.09862756      -0.03498596       0.00595640      -0.06963398
Li       3.52522381       3.65605609       0.13555901       10       0.52834863      -0.08024216      -0.02114821       0.10929678       0.08227036      -0.00605673
Li      -0.05267145       3.95499846       6.43159997       11      -0.60213827       0.18094092      -0.09084253      -0.17024788       0.13146172       0.11530268
P        1.11398865       2.08454170       1.19413480       12       0.04714466      -0.26920399       0.51887369      -0.43669993      -0.62878609       0.34100896
P        5.29229289       6.10218523      11.78906414       13       0.04965803       0.47953624       0.61762776       0.14735790      -0.39547849       0.02031901
P        3.96215654       6.01829190       5.28394605       14      -0.00078264       0.28153220       0.68290905       0.71792078      -0.05703578      -0.28594255
P        1.95702077       1.97245017       7.78306119       15      -0.53147884      -0.54723882      -0.60203644       0.27875340       0.09924743      -0.11323284
S        5.23072303       2.12039500       1.27847478       16       0.35258440       0.24590315      -0.20569278       0.17433855       0.08577028       0.12199369
S        1.17767841       6.09961357      11.63831821       17       0.20445320       1.15751404      -0.95734452      -0.32373342       0.07851711       0.13970993
S        1.94757069       5.98283477       5.08007325       18      -0.41418725      -0.40957503      -0.47107268      -0.29501483      -0.09319945       0.11218862
S        4.00767647       2.13600558       7.87009466       19      -0.78345806       0.43623857       0.63479037      -0.62726963      -0.22170076       0.07869320
S        1.84879796       2.00539509      12.31246938       20       1.30286422       0.86596745      -0.34091516       0.17180470       0.24391916      -0.43489209
S        4.47545004       5.99284728       0.67427917       21       0.44765887       0.42335606      -0.77822928       0.29231483       0.30547518       0.35765332
S        4.69198067       5.95132918       7.24084094       22       0.85870621      -1.14518848       0.10021696      -0.11773746      -0.01556697       0.11537768
S        1.19100022       2.00790046       5.80634422       23       0.56170825      -0.00388979      -0.98567546       0.23641385      -0.20498414       0.38473693
S        1.67650185       0.28508692       2.02100401       24      -0.31048479       0.24668459       0.33564197       0.24465349      -0.05101931      -0.04912068
S        4.56961977       7.81506911      10.92401967       25       0.41535279      -1.02813073      -0.68944447      -0.00343152      -0.04197945       0.10653360
S        4.79084551       7.79055896       4.56637970       26       0.83123507      -0.62166727       0.44550662      -0.43794411      -0.55477190      -0.12053727
S        1.32706838       0.12810712       8.57002402       27      -1.11255407      -0.33624606       0.37401527       0.29536566       0.62196571      -0.39421380
S        4.57909357       4.30089150      11.06533896       28       0.25762858       0.62335528       1.41326845      -0.08878150       0.24819145      -0.47785482
S        1.96724361       3.67340529       2.14185605       29       0.25409795       0.00901759      -0.31690278      -0.23702435       0.23038423      -0.52139878
S        1.12771695       3.65526301       8.69407593       30      -1.87039209      -0.12953744       1.47538393       0.14803153      -0.47300380      -0.50499690
S        4.67977282       4.23385256       4.41938797       31      -0.16993669      -0.51147724      -0.12987216       0.38708189       0.80114168       0.18718924
