32
Lattice="6.17176593 0.0 0.0 0.0 8.01859859 0.0 0.0 0.0 13.03281824" Properties=species:S:1:pos:R:3:spacegroup_kinds:I:1:momenta:R:3:forces:R:3 spacegroup="P 1" unit_cell=conventional occupancy="_JSON {\"0\": {\"Li\": 1.0}, \"1\": {\"Li\": 1.0}, \"2\": {\"Li\": 1.0}, \"3\": {\"Li\": 1.0}, \"4\": {\"Li\": 1.0}, \"5\": {\"Li\": 1.0}, \"6\": {\"Li\": 1.0}, \"7\": {\"Li\": 1.0}, \"8\": {\"Li\": 1.0}, \"9\": {\"Li\": 1.0}, \"10\": {\"Li\": 1.0}, \"11\": {\"Li\": 1.0}, \"12\": {\"P\": 1.0}, \"13\": {\"P\": 1.0}, \"14\": {\"P\": 1.0}, \"15\": {\"P\": 1.0}, \"16\": {\"S\": 1.0}, \"17\": {\"S\": 1.0}, \"18\": {\"S\": 1.0}, \"19\": {\"S\": 1.0}, \"20\": {\"S\": 1.0}, \"21\": {\"S\": 1.0}, \"22\": {\"S\": 1.0}, \"23\": {\"S\": 1.0}, \"24\": {\"S\": 1.0}, \"25\": {\"S\": 1.0}, \"26\": {\"S\": 1.0}, \"27\": {\"S\": 1.0}, \"28\": {\"S\": 1.0}, \"29\": {\"S\": 1.0}, \"30\": {\"S\": 1.0}, \"31\": {\"S\": 1.0}}" energy=-140.34629821777344 free_energy=-140.34629821777344 stress="-0.0028886066284030676 -1.4058002539840686e-09 -9.108473086882896e-09 -1.4058002539840686e-09 -0.0040722559206187725 -8.590044231482352e-09 -9.108473086882896e-09 -8.590044231482352e-09 -0.0025935897137969732" pbc="T T T"
Li       2.40166816       0.26892249       4.33377960        0       0.00000000       0.00000000       0.00000000      -0.01548982       0.00235969       0.00063383
Li       3.77009797       7.74967598       8.69903851        1       0.00000000       0.00000000       0.00000000       0.01548839      -0.00235855      -0.00063463
Li       5.48755104       7.74967603       2.18262942        2       0.00000000       0.00000000       0.00000000      -0.01549348      -0.00236197      -0.00063162
Li       0.68421472       0.26892249      10.85018873        3       0.00000000       0.00000000       0.00000000       0.01549173       0.00236085       0.00063147
Li       3.77009791       4.27822191       8.69903846        4       0.00000000       0.00000000       0.00000000       0.01548930       0.00235813      -0.00063371
Li       2.40166814       3.74037676       4.33377957        5       0.00000000       0.00000000       0.00000000      -0.01548934      -0.00236020       0.00063337
Li       0.68421474       3.74037683      10.85018872        6       0.00000000       0.00000000       0.00000000       0.01549000      -0.00236011       0.00063127
Li       5.48755104       4.27822190       2.18262937        7       0.00000000       0.00000000       0.00000000      -0.01549189       0.00236100      -0.00063107
Li       3.08588293       8.01859850       0.00000007        8       0.00000000       0.00000000       0.00000000      -0.00000154       0.00000064       0.00000058
Li       0.00000001       8.01859856       6.51640917        9       0.00000000       0.00000000       0.00000000       0.00000089       0.00000235      -0.00000103
Li       3.08588292       4.00929942       0.00000013       10       0.00000000       0.00000000       0.00000000      -0.00000093      -0.00000153      -0.00000191
Li       0.00000002       4.00929935       6.51640923       11       0.00000000       0.00000000       0.00000000       0.00000044      -0.00000173      -0.00000055
P        0.93932956       2.00464965       1.16793481       12       0.00000000       0.00000000       0.00000000      -0.00066867       0.00000067       0.03303510
P        5.23243634       6.01394891      11.86488437       13       0.00000000       0.00000000       0.00000000       0.00067019      -0.00000135      -0.03305996
P        4.02521218       6.01394902       5.34847531       14       0.00000000       0.00000000       0.00000000      -0.00065058      -0.00000146      -0.03306251
P        2.14655387       2.00464964       7.68434325       15       0.00000000       0.00000000       0.00000000       0.00065375      -0.00000166       0.03305207
S        5.07612353       2.00464966       1.30682509       16       0.00000000       0.00000000       0.00000000       0.00280242       0.00000126       0.01274942
S        1.09564247       6.01394898      11.72599295       17       0.00000000       0.00000000       0.00000000      -0.00280894      -0.00000053      -0.01274589
S        1.99024099       6.01394894       5.20958385       18       0.00000000       0.00000000       0.00000000       0.00279173      -0.00000005      -0.01274473
S        4.18152511       2.00464961       7.82323415       19       0.00000000       0.00000000       0.00000000      -0.00279243       0.00000189       0.01274842
S        1.68772174       2.00464965      12.25093557       20       0.00000000       0.00000000       0.00000000       0.03396939       0.00000040       0.02525088
S        4.48404413       6.01394895       0.78188261       21       0.00000000       0.00000000       0.00000000      -0.03397349       0.00000026      -0.02523440
S        4.77360474       6.01394894       7.29829156       22       0.00000000       0.00000000       0.00000000       0.03397291       0.00000049      -0.02523562
S        1.39816132       2.00464965       5.73452690       23       0.00000000       0.00000000       0.00000000      -0.03397331       0.00000001       0.02524134
S        1.68016703       0.28147976       2.00960393       24       0.00000000       0.00000000       0.00000000       0.02273364      -0.00259231      -0.01692022
S        4.49159896       7.73711937      11.02321403       25       0.00000000       0.00000000       0.00000000      -0.02272853       0.00258645       0.01692562
S        4.76604991       7.73711929       4.50680507       26       0.00000000       0.00000000       0.00000000       0.02272956       0.00258253       0.01692947
S        1.40571577       0.28147950       8.52601314       27       0.00000000       0.00000000       0.00000000      -0.02272795      -0.00258389      -0.01692867
S        4.49159894       4.29077844      11.02321403       28       0.00000000       0.00000000       0.00000000      -0.02272923      -0.00258627       0.01692333
S        1.68016709       3.72781955       2.00960386       29       0.00000000       0.00000000       0.00000000       0.02273342       0.00259119      -0.01692204
S        1.40571572       3.72781979       8.52601311       30       0.00000000       0.00000000       0.00000000      -0.02272727       0.00258587      -0.01692702
S        4.76604997       4.29077854       4.50680504       31       0.00000000       0.00000000       0.00000000       0.02272949      -0.00258204       0.01692921
32
Lattice="6.17176593 0.0 0.0 0.0 8.01859859 0.0 0.0 0.0 13.03281824" Properties=species:S:1:pos:R:3:spacegroup_kinds:I:1:momenta:R:3:forces:R:3 spacegroup="P 1" unit_cell=conventional occupancy="_JSON {\"0\": {\"Li\": 1.0}, \"1\": {\"Li\": 1.0}, \"2\": {\"Li\": 1.0}, \"3\": {\"Li\": 1.0}, \"4\": {\"Li\": 1.0}, \"5\": {\"Li\": 1.0}, \"6\": {\"Li\": 1.0}, \"7\": {\"Li\": 1.0}, \"8\": {\"Li\": 1.0}, \"9\": {\"Li\": 1.0}, \"10\": {\"Li\": 1.0}, \"11\": {\"Li\": 1.0}, \"12\": {\"P\": 1.0}, \"13\": {\"P\": 1.0}, \"14\": {\"P\": 1.0}, \"15\": {\"P\": 1.0}, \"16\": {\"S\": 1.0}, \"17\": {\"S\": 1.0}, \"18\": {\"S\": 1.0}, \"19\": {\"S\": 1.0}, \"20\": {\"S\": 1.0}, \"21\": {\"S\": 1.0}, \"22\": {\"S\": 1.0}, \"23\": {\"S\": 1.0}, \"24\": {\"S\": 1.0}, \"25\": {\"S\": 1.0}, \"26\": {\"S\": 1.0}, \"27\": {\"S\": 1.0}, \"28\": {\"S\": 1.0}, \"29\": {\"S\": 1.0}, \"30\": {\"S\": 1.0}, \"31\": {\"S\": 1.0}}" energy=-140.34512329101562 free_energy=-140.34512329101562 stress="-0.002907471964135766 1.4859500879538245e-05 8.251501276390627e-05 1.4859500879538245e-05 -0.0039673903957009315 2.532790313125588e-05 8.251501276390627e-05 2.532790313125588e-05 -0.002361632650718093" pbc="T T T"
Li       2.39500969       0.26778501       4.33930113        0      -0.05221411       0.03377553       0.11814721      -0.00362060       0.00908197      -0.01832413
Li       3.77245707       7.75179992       8.69411525        1       0.10309008       0.08134556      -0.13977881       0.01467099      -0.00515894       0.01016804
Li       5.48650834       7.74872847       2.18306475        2       0.01886077      -0.07443975      -0.16759862      -0.01404779       0.00397980      -0.00540909
Li       0.68796969       0.26544981      10.84518593        3       0.04514458      -0.13822358      -0.18005827       0.00352664       0.01030668       0.01525444
Li       3.77363925       4.27390079       8.70074947        4       0.00966878      -0.07105946      -0.00820327       0.01859853       0.01367707      -0.00822515
Li       2.40472623       3.73675210       4.32923665        5       0.13823627      -0.00557911      -0.17469062      -0.01795173       0.00223363       0.01419474
Li       0.68934788       3.74150447      10.84677339        6       0.05771858       0.04099305      -0.12829242       0.00061360      -0.00996912       0.00545033
Li       5.48710799       4.27546835       2.18693750        7       0.00340537      -0.08763189       0.13580419      -0.01604511       0.01032501      -0.00915312
Li       3.08955154       8.01629952       0.00251539        8       0.02922859      -0.00159794       0.12483235      -0.00468215       0.00801224      -0.00247157
Li       0.00269655       8.01768941       6.51001374        9       0.15289372      -0.09282457      -0.14592001      -0.00110053      -0.00398698       0.01561129
Li       3.08307447       4.00780237      -0.00637655       10      -0.08252853      -0.10390558      -0.15167243       0.00228453       0.00102003       0.00879410
Li       0.00140675       4.00764118       6.51323811       11       0.02514899       0.05879648      -0.02895704      -0.00430457       0.00721452       0.00877895
P        0.93953214       2.00502494       1.16973157       12       0.02906168       0.23360183       0.01382248       0.00875345      -0.00322267      -0.02851019
P        5.23458873       6.01456761      11.86614908       13       0.12960832      -0.07021161       0.31198995      -0.07170087      -0.03595581      -0.06570987
P        4.02158550       6.01522282       5.34687615       14      -0.25607596       0.20149533      -0.10398973       0.07903662      -0.00666865       0.01716079
P        2.14543658       2.00477553       7.68514985       15      -0.12762367      -0.00723009       0.10915934       0.02031732      -0.03536613       0.03963075
S        5.07713336       2.00845248       1.30685922       16       0.10094766       0.36317197      -0.04174884      -0.00742757      -0.01336462       0.01391250
S        1.09541743       6.01191765      11.72540493       17       0.06383938      -0.13919264      -0.04602295       0.02100402       0.00594656      -0.01357686
S        1.98878750       6.01853184       5.21069565       18      -0.15776431       0.36605386       0.29617232      -0.01620572      -0.02834059      -0.02004031
S        4.18045243       2.00436931       7.82341668       19      -0.30934099       0.08225961       0.09733822       0.00426927      -0.00367195       0.00227830
S        1.69056336       2.00379480      12.24949105       20       0.17912806      -0.26287054      -0.08092232       0.01417594       0.00398784       0.06453235
S        4.48603706       6.01497602       0.78342798       21       0.06804181       0.04320204       0.14400523      -0.03259616      -0.01515010      -0.03077134
S        4.77460950       6.01613221       7.30037409       22       0.03212499       0.15751285       0.27632490       0.01399343      -0.01117207      -0.08795889
S        1.39555242       2.00534686       5.73595231       23      -0.17316255       0.15904533       0.30884199      -0.03098355      -0.00177747       0.01497960
S        1.67790254       0.28005153       2.00589701       24      -0.10607399      -0.14607795      -0.54842379       0.03465754      -0.01680704       0.01361091
S        4.48735126       7.73637140      11.02498558       25      -0.55197757      -0.23087844       0.04678991       0.00852250      -0.01000251       0.01549492
S        4.76647266       7.73702333       4.50377585       26       0.11617622       0.13159431      -0.43705463       0.00198330      -0.00483159       0.02467376
S        1.40667289       0.28048904       8.52894153       27       0.20880579      -0.10526126       0.32452925      -0.02350864       0.00929829      -0.04737843
S        4.48896489       4.28940993      11.02055380       28      -0.18418637      -0.19473946      -0.17564823       0.01912492       0.04562558       0.05601300
S        1.68047030       3.72639509       2.01280322       29       0.11772418      -0.15085723       0.22873460       0.03259446       0.01621713      -0.02791540
S        1.41011512       3.72745249       8.52465343       30       0.45439243       0.05734864      -0.08309903      -0.05072565       0.03578629      -0.00597339
S        4.76683678       4.29013242       4.50723050       31      -0.08229815      -0.12761528       0.10558907      -0.00322638       0.02273354       0.03087911
32
Lattice="6.17176593 0.0 0.0 0.0 8.01859859 0.0 0.0 0.0 13.03281824" Properties=species:S:1:pos:R:3:spacegroup_kinds:I:1:momenta:R:3:forces:R:3 spacegroup="P 1" unit_cell=conventional occupancy="_JSON {\"0\": {\"Li\": 1.0}, \"1\": {\"Li\": 1.0}, \"2\": {\"Li\": 1.0}, \"3\": {\"Li\": 1.0}, \"4\": {\"Li\": 1.0}, \"5\": {\"Li\": 1.0}, \"6\": {\"Li\": 1.0}, \"7\": {\"Li\": 1.0}, \"8\": {\"Li\": 1.0}, \"9\": {\"Li\": 1.0}, \"10\": {\"Li\": 1.0}, \"11\": {\"Li\": 1.0}, \"12\": {\"P\": 1.0}, \"13\": {\"P\": 1.0}, \"14\": {\"P\": 1.0}, \"15\": {\"P\": 1.0}, \"16\": {\"S\": 1.0}, \"17\": {\"S\": 1.0}, \"18\": {\"S\": 1.0}, \"19\": {\"S\": 1.0}, \"20\": {\"S\": 1.0}, \"21\": {\"S\": 1.0}, \"22\": {\"S\": 1.0}, \"23\": {\"S\": 1.0}, \"24\": {\"S\": 1.0}, \"25\": {\"S\": 1.0}, \"26\": {\"S\": 1.0}, \"27\": {\"S\": 1.0}, \"28\": {\"S\": 1.0}, \"29\": {\"S\": 1.0}, \"30\": {\"S\": 1.0}, \"31\": {\"S\": 1.0}}" energy=-140.33624267578125 free_energy=-140.33624267578125 stress="-0.0032603642903268337 -1.5970754247973673e-05 0.00022279281984083354 -1.5970754247973673e-05 -0.00397362420335412 -7.163090049289167e-05 0.00022279281984083354 -7.163090049289167e-05 -0.0020589802879840136" pbc="T T T"
Li       2.39012225       0.26976504       4.34566433        0      -0.12808587       0.01914890       0.04906977       0.00154771       0.01829923      -0.04628794
Li       3.77811825       7.76025717       8.68778748        1       0.11985824       0.16870085      -0.05579986       0.01565952      -0.01924608       0.02569258
Li       5.48685201       7.74677767       2.17314607        2      -0.00391618       0.03325401      -0.10321173      -0.00776823       0.01049604       0.00050962
Li       0.69086741       0.25143201      10.83174090        3       0.01561072      -0.28751455      -0.29189635      -0.01089657       0.03528766       0.05513744
Li       3.77279669       4.27326996       8.69514222        4      -0.04619311       0.00533632      -0.07806465       0.02803020       0.02236060      -0.00005254
Li       2.42121353       3.74196084       4.31582746        5       0.30955572       0.16363218      -0.22805891      -0.05802178      -0.01953335       0.04926625
Li       0.69407993       3.74813416      10.83728119        6       0.09484511       0.12107676      -0.07532179      -0.00559542      -0.03808829       0.01877441
Li       5.48553063       4.27059369       2.19652073        7      -0.10071762      -0.11554361       0.10810936      -0.01111052       0.02800109      -0.02750513
Li       3.08770241       8.01655615       0.01340269        8      -0.09006003       0.16106094       0.21505526       0.00516754       0.00372198      -0.03444195
Li       0.01297427       8.01359773       6.49460001        9       0.20916706      -0.14388786      -0.27356543      -0.00042766      -0.01063648       0.04103878
Li       3.07681206       4.00066156      -0.01774712       10      -0.11887993      -0.07399146      -0.13885564       0.00623939       0.00803197       0.01933012
Li       0.00520429       4.00632659       6.51075535       11       0.01731431      -0.14200598      -0.01046621      -0.01015154       0.01784431       0.01498627
P        0.93853105       2.01082495       1.16985557       12      -0.25515828       0.44987055      -0.06720020       0.10583049      -0.07013297      -0.07492070
P        5.23494763       6.01007135      11.87066995       13      -0.19912077      -0.47486961       0.13727628      -0.11806643      -0.02894645      -0.11460292
P        4.01706766       6.01762053       5.34293158       14      -0.19863070       0.04044748      -0.11469812       0.16651297       0.02667129       0.11739533
P        2.14444282       2.00322677       7.69021729       15       0.03216145      -0.17087047       0.50365139       0.02850495      -0.04727941       0.01161528
S        5.08344899       2.01556842       1.30526614       16       0.72725897       0.52060478      -0.26083237      -0.11392550      -0.02314499       0.02044521
S        1.09677324       6.00851070      11.72239839       17       0.26437314      -0.24578776      -0.07478945      -0.00176304       0.00169052       0.00787149
S        1.98548196       6.02446673       5.21336045       18      -0.19130609       0.50062872       0.18951702      -0.02061392      -0.05223057      -0.03518502
S        4.17714914       2.00480786       7.82603666       19      -0.15595337      -0.09896471       0.25397998       0.05176559      -0.00393000      -0.00687825
S        1.69395795       1.99807073      12.24957432       20       0.22151211      -0.36467917       0.09069351      -0.01281416       0.03617280       0.05818999
S        4.48191631       6.01361097       0.78759925       21      -0.28486113      -0.05560241       0.51933381      -0.01017550      -0.03716046      -0.05020294
S        4.77367838       6.01929862       7.30507545       22      -0.07631621       0.28885402       0.33561418      -0.00707053      -0.01448570      -0.21242379
S        1.39516333       2.00930183       5.74075881       23       0.05454056       0.29663443       0.25682061      -0.02407347      -0.00944817      -0.01220369
S        1.67577632       0.28093066       1.99855123       24      -0.12219861       0.10747652      -0.55396054       0.03584282      -0.02364669       0.07261226
S        4.48238618       7.73091692      11.02663206       25      -0.24642176      -0.48250271       0.12909718       0.03718890      -0.03319435       0.03928839
S        4.76678710       7.73889316       4.49571890       26       0.04138270       0.08461585      -0.59440401      -0.02730013      -0.04826290       0.04745678
S        1.40936635       0.27992637       8.53615969       27       0.03939069      -0.03010802       0.49656619      -0.03650058      -0.00326612      -0.09668077
S        4.48668459       4.28489417      11.01873544       28      -0.27400600      -0.18036865       0.13140594       0.05481962       0.08149259       0.08300638
S        1.68415334       3.72530413       2.01667517       29       0.30176826      -0.17180367       0.13548336       0.03525374       0.05792143      -0.04536489
S        1.41519500       3.72743844       8.52131638       30       0.36513659       0.06187346      -0.55537616      -0.09509895       0.08603245       0.02641338
S        4.76512053       4.28932151       4.50827048       31      -0.32204995       0.01528486      -0.07517241      -0.00098935       0.04860910       0.04772069
32
Lattice="6.17176593 0.0 0.0 0.0 8.01859859 0.0 0.0 0.0 13.03281824" Properties=species:S:1:pos:R:3:spacegroup_kinds:I:1:momenta:R:3:forces:R:3 spacegroup="P 1" unit_cell=conventional occupancy="_JSON {\"0\": {\"Li\": 1.0}, \"1\": {\"Li\": 1.0}, \"2\": {\"Li\": 1.0}, \"3\": {\"Li\": 1.0}, \"4\": {\"Li\": 1.0}, \"5\": {\"Li\": 1.0}, \"6\": {\"Li\": 1.0}, \"7\": {\"Li\": 1.0}, \"8\": {\"Li\": 1.0}, \"9\": {\"Li\": 1.0}, \"10\": {\"Li\": 1.0}, \"11\": {\"Li\": 1.0}, \"12\": {\"P\": 1.0}, \"13\": {\"P\": 1.0}, \"14\": {\"P\": 1.0}, \"15\": {\"P\": 1.0}, \"16\": {\"S\": 1.0}, \"17\": {\"S\": 1.0}, \"18\": {\"S\": 1.0}, \"19\": {\"S\": 1.0}, \"20\": {\"S\": 1.0}, \"21\": {\"S\": 1.0}, \"22\": {\"S\": 1.0}, \"23\": {\"S\": 1.0}, \"24\": {\"S\": 1.0}, \"25\": {\"S\": 1.0}, \"26\": {\"S\": 1.0}, \"27\": {\"S\": 1.0}, \"28\": {\"S\": 1.0}, \"29\": {\"S\": 1.0}, \"30\": {\"S\": 1.0}, \"31\": {\"S\": 1.0}}" energy=-140.31324768066406 free_energy=-140.31324768066406 stress="-0.0037517233286052942 -0.00015046853513922542 0.0002126217441400513 -0.00015046853513922542 -0.004314563702791929 -0.0003618463524617255 0.0002126217441400513 -0.0003618463524617255 -0.0016384684713557363" pbc="T T T"
Li       2.38584500       0.26853588       4.34745779        0      -0.06131543      -0.09005742      -0.03415345       0.00478556       0.03941640      -0.06438881
Li       3.78931055       7.77086505       8.68417732        1       0.24069314       0.11356579      -0.10298496       0.00020740      -0.03641501       0.04193185
Li       5.48073291       7.74726307       2.15976973        2      -0.12595071       0.00003226      -0.18450997       0.01450931       0.01140029       0.00843440
Li       0.68814052       0.22781935      10.81499350        3      -0.01522728      -0.38905633      -0.16655477      -0.00973757       0.07821525       0.10852280
Li       3.76671052       4.27748128       8.68872552        4      -0.07340144       0.06815599      -0.08973223       0.04719604       0.02188100       0.00529763
Li       2.43855159       3.75935321       4.30184216        5       0.20156408       0.28084928      -0.13920078      -0.10626597      -0.06587324       0.08115641
Li       0.70143794       3.75992751      10.83278668        6       0.09051294       0.19801725      -0.01727417      -0.00325977      -0.07263649       0.01852393
Li       5.47551224       4.25771853       2.20500574        7      -0.08370294      -0.11956235       0.11695937       0.00720631       0.06464341      -0.04399422
Li       3.07920779       8.02211402       0.03221337        8      -0.07833770       0.06413030       0.29677865       0.03648000      -0.02239968      -0.08814584
Li       0.01880806       8.00215509       6.47345125        9       0.07483961      -0.17420631      -0.21935115       0.01823215      -0.00201546       0.07005210
Li       3.06561802       3.99517155      -0.02607712       10      -0.20789182      -0.10812690       0.00787842       0.01071125       0.02748612       0.02941870
Li       0.01462229       3.99210019       6.51324677       11       0.26478144      -0.15680136       0.06672136      -0.04163242       0.04336716      -0.00267455
P        0.93659171       2.01875644       1.16987414       12       0.01374926       0.38541156      -0.03419001       0.28705007      -0.16162291      -0.11071295
P        5.23107048       5.99953179      11.87140139       13      -0.43517378      -0.63850049       0.08979563      -0.03547677       0.11171287       0.01019776
P        4.01324963       6.01844743       5.34241170       14      -0.33154591       0.14226109      -0.04784491       0.25968361       0.07797092       0.15149631
P        2.14421034       2.00159856       7.69678320       15       0.12218739      -0.24613357       0.22729919      -0.01666640      -0.06508740      -0.06618222
S        5.09329319       2.02329987       1.30091256       16       0.43949568       0.47917633      -0.30450316      -0.30481300      -0.03682143       0.02558285
S        1.10168057       6.00693239      11.72076514       17       0.29805708      -0.10929624      -0.04568465      -0.10930174      -0.02483745       0.03047615
S        1.98341570       6.02928128       5.21449789       18       0.03357455       0.29836735       0.11637205      -0.03955802      -0.06796480      -0.03280714
S        4.17301068       2.00372778       7.82507327       19      -0.55453226      -0.02479084      -0.17361213       0.11860897       0.00682019       0.00039176
S        1.69786476       1.99242025      12.25036759       20       0.21596899      -0.21862894       0.12377288      -0.04245298       0.06645433       0.03527293
S        4.47889275       6.01142188       0.79857813       21      -0.16136584      -0.14019387       0.74370769       0.02209783      -0.06859513      -0.17388201
S        4.77397435       6.02075342       7.31002280       22       0.11281863      -0.04681379       0.15653528      -0.02285667      -0.01458519      -0.30828509
S        1.39301988       2.01415436       5.74451502       23      -0.11727341       0.29977192       0.30518921       0.00459164      -0.02931176      -0.01201691
S        1.67277740       0.28189884       1.99189934       24      -0.22873822       0.03590694      -0.30163810       0.01404952      -0.00841662       0.12833950
S        4.48086470       7.72427492      11.03144837       25      -0.09904575      -0.55658594       0.38154143       0.02805578      -0.04543928       0.05231994
S        4.76627234       7.73832532       4.48375377       26       0.01070341      -0.11334199      -0.92784373      -0.06088711      -0.09745154       0.09681096
S        1.40705668       0.28089971       8.54388687       27      -0.20166259       0.06165596       0.45158215      -0.01915874      -0.00882394      -0.15873575
S        4.48547346       4.28419070      11.01930119       28      -0.08492364       0.07934208      -0.02328240       0.03909398      -0.00347570       0.04492963
S        1.68778236       3.72592270       2.01904471       29       0.23000502       0.28218817       0.17115807       0.02599924       0.09972134      -0.05257910
S        1.42177001       3.73102693       8.51526818       30       0.30091041       0.21302223      -0.42079772      -0.13847342       0.12387238       0.08627530
S        4.76480257       4.29033689       4.50804302       31       0.21022715       0.13024184      -0.02213304       0.01198183       0.05881153       0.08897357
32
Lattice="6.17176593 0.0 0.0 0.0 8.01859859 0.0 0.0 0.0 13.03281824" Properties=species:S:1:pos:R:3:spacegroup_kinds:I:1:momenta:R:3:forces:R:3 spacegroup="P 1" unit_cell=conventional occupancy="_JSON {\"0\": {\"Li\": 1.0}, \"1\": {\"Li\": 1.0}, \"2\": {\"Li\": 1.0}, \"3\": {\"Li\": 1.0}, \"4\": {\"Li\": 1.0}, \"5\": {\"Li\": 1.0}, \"6\": {\"Li\": 1.0}, \"7\": {\"Li\": 1.0}, \"8\": {\"Li\": 1.0}, \"9\": {\"Li\": 1.0}, \"10\": {\"Li\": 1.0}, \"11\": {\"Li\": 1.0}, \"12\": {\"P\": 1.0}, \"13\": {\"P\": 1.0}, \"14\": {\"P\": 1.0}, \"15\": {\"P\": 1.0}, \"16\": {\"S\": 1.0}, \"17\": {\"S\": 1.0}, \"18\": {\"S\": 1.0}, \"19\": {\"S\": 1.0}, \"20\": {\"S\": 1.0}, \"21\": {\"S\": 1.0}, \"22\": {\"S\": 1.0}, \"23\": {\"S\": 1.0}, \"24\": {\"S\": 1.0}, \"25\": {\"S\": 1.0}, \"26\": {\"S\": 1.0}, \"27\": {\"S\": 1.0}, \"28\": {\"S\": 1.0}, \"29\": {\"S\": 1.0}, \"30\": {\"S\": 1.0}, \"31\": {\"S\": 1.0}}" energy=-140.2791290283203 free_energy=-140.2791290283203 stress="-0.004173289053142071 -0.000258213491179049 1.8924576579593122e-05 -0.000258213491179049 -0.004727620631456375 -0.00022050262487027794 1.8924576579593122e-05 -0.00022050262487027794 -0.0015587439993396401" pbc="T T T"
Li       2.38308005       0.25666380       4.34359493        0      -0.13637939      -0.21575061      -0.06435100       0.00556121       0.08783235      -0.07647763
Li       3.80152258       7.78139538       8.67300585        1       0.07582185       0.10366630      -0.24135955      -0.01720380      -0.06273748       0.06582384
Li       5.47827599       7.75300798       2.14358100        2      -0.01869371       0.15687115      -0.33027098       0.01542670       0.00469296       0.02303062
Li       0.68701819       0.20296492      10.81242935        3      -0.03260358      -0.31171983       0.11218123      -0.00135708       0.12080879       0.12507850
Li       3.76093918       4.28910389       8.68774793        4      -0.15006918       0.15156776      -0.05217322       0.05436703       0.00754887       0.00225694
Li       2.44770967       3.77440164       4.29480044        5       0.12703658       0.16624833      -0.08833813      -0.11195830      -0.10689441       0.10031246
Li       0.70930307       3.77743214      10.83517103        6       0.16632489       0.23573612       0.10257840      -0.00358633      -0.10759056       0.00700068
Li       5.47323291       4.25356465       2.21156584        7       0.00960901       0.00629794       0.02375354       0.00900305       0.07973496      -0.05744402
Li       3.07013134       8.03292267       0.05633742        8      -0.12875667       0.20416770       0.37056556       0.08692548      -0.05899379      -0.15912277
Li       0.02505945       7.98976237       6.45391191        9       0.05044651      -0.17069907      -0.27390859       0.03620417       0.00753260       0.09767954
Li       3.04861975       3.98682497      -0.01779217       10      -0.28961400      -0.14163649       0.20855338       0.05388219       0.06239551      -0.00710040
Li       0.03589277       3.98364610       6.51914169       11       0.29566460      -0.02980842       0.09171648      -0.08842094       0.07217565      -0.03554942
P        0.94026713       2.02648115       1.17062220       12       0.41363075       0.55540669       0.00998147       0.26498514      -0.23045895      -0.12427773
P        5.22301013       5.99533859      11.87140950       13      -0.45037098       0.02262835      -0.01516125       0.14249967       0.10716936       0.17536776
P        4.00809799       6.02176713       5.34245474       14      -0.50389908       0.19680982       0.11328294       0.45400423       0.02843067       0.09506143
P        2.14516148       1.99723829       7.69982212       15      -0.04517119      -0.31616124       0.12839080      -0.17206866      -0.03569520      -0.07609271
S        5.09811877       2.02984932       1.29532863       16       0.31635114       0.39508642      -0.40858880      -0.33830440      -0.03331772       0.03606516