32
Lattice="6.17176593 0.0 0.0 0.0 8.01859859 0.0 0.0 0.0 13.03281824" Properties=species:S:1:pos:R:3:spacegroup_kinds:I:1:forces:R:3 spacegroup="P 1" unit_cell=conventional occupancy="_JSON {\"0\": {\"Li\": 1.0}, \"1\": {\"Li\": 1.0}, \"2\": {\"Li\": 1.0}, \"3\": {\"Li\": 1.0}, \"4\": {\"Li\": 1.0}, \"5\": {\"Li\": 1.0}, \"6\": {\"Li\": 1.0}, \"7\": {\"Li\": 1.0}, \"8\": {\"Li\": 1.0}, \"9\": {\"Li\": 1.0}, \"10\": {\"Li\": 1.0}, \"11\": {\"Li\": 1.0}, \"12\": {\"P\": 1.0}, \"13\": {\"P\": 1.0}, \"14\": {\"P\": 1.0}, \"15\": {\"P\": 1.0}, \"16\": {\"S\": 1.0}, \"17\": {\"S\": 1.0}, \"18\": {\"S\": 1.0}, \"19\": {\"S\": 1.0}, \"20\": {\"S\": 1.0}, \"21\": {\"S\": 1.0}, \"22\": {\"S\": 1.0}, \"23\": {\"S\": 1.0}, \"24\": {\"S\": 1.0}, \"25\": {\"S\": 1.0}, \"26\": {\"S\": 1.0}, \"27\": {\"S\": 1.0}, \"28\": {\"S\": 1.0}, \"29\": {\"S\": 1.0}, \"30\": {\"S\": 1.0}, \"31\": {\"S\": 1.0}}" energy=-140.34629821777344 free_energy=-140.34629821777344 stress="-0.0028886066284030676 -1.4058002539840686e-09 -9.108473086882896e-09 -1.4058002539840686e-09 -0.0040722559206187725 -8.590044231482352e-09 -9.108473086882896e-09 -8.590044231482352e-09 -0.0025935897137969732" pbc="T T T"
Li       2.40166816       0.26892249       4.33377960        0      -0.01548982       0.00235969       0.00063383
Li       3.77009797       7.74967598       8.69903851        1       0.01548839      -0.00235855      -0.00063463
Li       5.48755104       7.74967603       2.18262942        2      -0.01549348      -0.00236197      -0.00063162
Li       0.68421472       0.26892249      10.85018873        3       0.01549173       0.00236085       0.00063147
Li       3.77009791       4.27822191       8.69903846        4       0.01548930       0.00235813      -0.00063371
Li       2.40166814       3.74037676       4.33377957        5      -0.01548934      -0.00236020       0.00063337
Li       0.68421474       3.74037683      10.85018872        6       0.01549000      -0.00236011       0.00063127
Li       5.48755104       4.27822190       2.18262937        7      -0.01549189       0.00236100      -0.00063107
Li       3.08588293       8.01859850       0.00000007        8      -0.00000154       0.00000064       0.00000058
Li       0.00000001       8.01859856       6.51640917        9       0.00000089       0.00000235      -0.00000103
Li       3.08588292       4.00929942       0.00000013       10      -0.00000093      -0.00000153      -0.00000191
Li       0.00000002       4.00929935       6.51640923       11       0.00000044      -0.00000173      -0.00000055
P        0.93932956       2.00464965       1.16793481       12      -0.00066867       0.00000067       0.03303510
P        5.23243634       6.01394891      11.86488437       13       0.00067019      -0.00000135      -0.03305996
P        4.02521218       6.01394902       5.34847531       14      -0.00065058      -0.00000146      -0.03306251
P        2.14655387       2.00464964       7.68434325       15       0.00065375      -0.00000166       0.03305207
S        5.07612353       2.00464966       1.30682509       16       0.00280242       0.00000126       0.01274942
S        1.09564247       6.01394898      11.72599295       17      -0.00280894      -0.00000053      -0.01274589
S        1.99024099       6.01394894       5.20958385       18       0.00279173      -0.00000005      -0.01274473
S        4.18152511       2.00464961       7.82323415       19      -0.00279243       0.00000189       0.01274842
S        1.68772174       2.00464965      12.25093557       20       0.03396939       0.00000040       0.02525088
S        4.48404413       6.01394895       0.78188261       21      -0.03397349       0.00000026      -0.02523440
S        4.77360474       6.01394894       7.29829156       22       0.03397291       0.00000049      -0.02523562
S        1.39816132       2.00464965       5.73452690       23      -0.03397331       0.00000001       0.02524134
S        1.68016703       0.28147976       2.00960393       24       0.02273364      -0.00259231      -0.01692022
S        4.49159896       7.73711937      11.02321403       25      -0.02272853       0.00258645       0.01692562
S        4.76604991       7.73711929       4.50680507       26       0.02272956       0.00258253       0.01692947
S        1.40571577       0.28147950       8.52601314       27      -0.02272795      -0.00258389      -0.01692867
S        4.49159894       4.29077844      11.02321403       28      -0.02272923      -0.00258627       0.01692333
S        1.68016709       3.72781955       2.00960386       29       0.02273342       0.00259119      -0.01692204
S        1.40571572       3.72781979       8.52601311       30      -0.02272727       0.00258587      -0.01692702
S        4.76604997       4.29077854       4.50680504       31       0.02272949      -0.00258204       0.01692921
