4
Lattice="3.128588 0.0 0.0 -1.5642939988088433 2.709436998432005 0.0 0.0 0.0 5.016955" Properties=species:S:1:pos:R:3:spacegroup_kinds:I:1:momenta:R:3:forces:R:3 spacegroup="P 1" unit_cell=conventional occupancy="_JSON {\"0\": {\"Al\": 1}, \"1\": {\"Al\": 1}, \"2\": {\"N\": 1}, \"3\": {\"N\": 1}}" energy=-29.623741149902344 free_energy=-29.623741149902344 stress="0.004300225991755724 -0.008672811090946198 0.002881864318624139 -0.008672811090946198 -0.006943746469914913 -0.004434429574757814 0.002881864318624139 -0.004434429574757814 -0.01483920682221651" pbc="T T T"
Al       1.54321202       0.89379620       2.53645985        0      -0.00705465      -0.41529185       0.79444828      -0.25250164       0.39302838      -0.87834364
Al       0.03580898       1.79893954       4.98957809        1       0.09337926      -0.29525120      -0.61191816      -0.16600807       0.14057869       0.62745208
N        1.59619758       0.90645095       4.40111843        2      -0.02189843       1.09350654       0.27120862      -0.08900183      -0.09593533       0.34911197
N       -0.05911265       1.83464208       1.91219260        3      -0.06442621      -0.38296352      -0.45373883       0.50751150      -0.43767166      -0.09822001
