4
Lattice="3.128588 0.0 0.0 -1.5642939988088433 2.709436998432005 0.0 0.0 0.0 5.016955" Properties=species:S:1:pos:R:3:spacegroup_kinds:I:1:momenta:R:3:forces:R:3 spacegroup="P 1" unit_cell=conventional occupancy="_JSON {\"0\": {\"Al\": 1}, \"1\": {\"Al\": 1}, \"2\": {\"N\": 1}, \"3\": {\"N\": 1}}" energy=-29.673717498779297 free_energy=-29.673717498779297 stress="-0.002225465839728713 -1.2584361002154765e-06 -1.7479655056718002e-08 -1.2584361002154765e-06 -0.0022275298833847046 -4.5150287064643635e-08 -1.7479655056718002e-08 -4.5150287064643635e-08 -0.005453705787658691" pbc="T T T"
Al       1.56429556       0.90314476       2.50490041        0       0.68448204       0.53670047       0.91071479      -0.00003398       0.00002102       0.00553234
Al      -0.00000156       1.80629224       5.01337791        1       0.31075784       0.39520501      -1.87833745       0.00003389      -0.00001903       0.00552371
N        1.56429556       0.90314476       4.41849749        2      -0.23293981      -0.79739853      -0.40745139      -0.00003542       0.00001994      -0.00553071
N       -0.00000156       1.80629224       1.91001999        3      -0.76230006      -0.13450696       1.37507406       0.00003539      -0.00002219      -0.00552532
4
Lattice="3.128588 0.0 0.0 -1.5642939988088433 2.709436998432005 0.0 0.0 0.0 5.016955" Properties=species:S:1:pos:R:3:spacegroup_kinds:I:1:momenta:R:3:forces:R:3 spacegroup="P 1" unit_cell=conventional occupancy="_JSON {\"0\": {\"Al\": 1}, \"1\": {\"Al\": 1}, \"2\": {\"N\": 1}, \"3\": {\"N\": 1}}" energy=-29.433591842651367 free_energy=-29.433591842651367 stress="-0.013773464597761631 -0.01644635945558548 0.01294877752661705 -0.01644635945558548 -0.023968655616044998 0.009969756007194519 0.01294877752661705 0.009969756007194519 -0.012059437111020088" pbc="T T T"
Al       1.60246141       0.92231283       2.54150848        0       0.57498212      -0.13491994       1.02882445      -1.31301284      -0.49033430      -0.87831378
Al       0.00328788       1.81111139       4.94718774        1      -0.44725817       0.00118060      -1.07867296      -0.30154160      -0.59423220       1.18011868
N        1.53678588       0.85870780       4.38099594        2       0.14052043      -0.46066731       0.20203874       0.28490806       0.67984456       1.25553632
N       -0.05228245       1.80432671       2.00436660        3      -0.26824441       0.59440663      -0.15219029       1.32964659       0.40472186      -1.55734110
4
Lattice="3.128588 0.0 0.0 -1.5642939988088433 2.709436998432005 0.0 0.0 0.0 5.016955" Properties=species:S:1:pos:R:3:spacegroup_kinds:I:1:momenta:R:3:forces:R:3 spacegroup="P 1" unit_cell=conventional occupancy="_JSON {\"0\": {\"Al\": 1}, \"1\": {\"Al\": 1}, \"2\": {\"N\": 1}, \"3\": {\"N\": 1}}" energy=-29.5672550201416 free_energy=-29.5672550201416 stress="0.012915692292153835 0.0017025114502757788 0.003579332260414958 0.0017025114502757788 -0.02585705555975437 -0.005369184538722038 0.003579332260414958 -0.005369184538722038 -0.011435209773480892" pbc="T T T"
Al       1.59598186       0.90138486       2.55101265        0      -0.85003973      -0.64755175      -0.41676278      -0.33522624       0.74370509      -1.26921260
Al      -0.01311800       1.79082858       4.96769658        1      -0.24557031      -0.74327810       1.65595767      -0.18280268      -0.17026806       1.21499765
N        1.52960409       0.86779351       4.41996342        2       0.16413075       0.60763605       0.63654577       0.31887677       0.39321458      -0.09056912
N       -0.00060095       1.87475188       1.90756519        3       0.93147929       0.78319380      -1.87574071       0.19915223      -0.96665144       0.14478406
4
Lattice="3.128588 0.0 0.0 -1.5642939988088433 2.709436998432005 0.0 0.0 0.0 5.016955" Properties=species:S:1:pos:R:3:spacegroup_kinds:I:1:momenta:R:3:forces:R:3 spacegroup="P 1" unit_cell=conventional occupancy="_JSON {\"0\": {\"Al\": 1}, \"1\": {\"Al\": 1}, \"2\": {\"N\": 1}, \"3\": {\"N\": 1}}" energy=-29.406274795532227 free_energy=-29.406274795532227 stress="0.010688834823668003 0.016498159617185593 -0.008164040744304657 0.016498159617185593 -0.009423274546861649 -0.015553989447653294 -0.008164040744304657 -0.015553989447653294 -0.061254072934389114" pbc="T T T"
Al       1.53423929       0.87298460       2.51007453        0      -1.60925382       0.09619185      -1.03262296       0.74608850       1.00298655       0.03482214
Al      -0.01349004       1.78470221       5.05709164        1       0.21561240      -0.04339785       1.72443237       0.02271283       0.40732867      -1.66436839
N        1.55208974       0.92225133       4.42203510        2       0.38659382       0.63935797      -0.93002910       0.04495733      -0.39009631      -0.56986171
N        0.09667396       1.88681818       1.81230436        3       1.00704760      -0.69215196       0.23821969      -0.81375873      -1.02021897       2.19940758
4
Lattice="3.128588 0.0 0.0 -1.5642939988088433 2.709436998432005 0.0 0.0 0.0 5.016955" Properties=species:S:1:pos:R:3:spacegroup_kinds:I:1:momenta:R:3:forces:R:3 spacegroup="P 1" unit_cell=conventional occupancy="_JSON {\"0\": {\"Al\": 1}, \"1\": {\"Al\": 1}, \"2\": {\"N\": 1}, \"3\": {\"N\": 1}}" energy=-29.201904296875 free_energy=-29.201904296875 stress="-0.026440691202878952 0.03815525025129318 -0.03138260915875435 0.03815525025129318 -0.004877462983131409 0.0015436488902196288 -0.03138260915875435 0.0015436488902196288 -0.051819875836372375" pbc="T T T"
Al       1.49382402       0.87740190       2.48150489        0      -0.08661667      -0.02748817       0.25595554       2.48428202      -0.46186250       1.22611547
Al      -0.02076736       1.79337851       5.08843292        1       0.00716745       0.60209066      -1.27068305       0.64723277       0.57433546      -2.36004090
N        1.60157220       0.96971686       4.33361321        2       0.49437254       0.53651032      -0.17473368      -0.53882504      -0.70145291       1.74609041
N        0.13924907       1.81421456       1.89535170        3      -0.41492332      -1.11111281       1.18946122      -2.59268951       0.58898050      -0.61216503
4
Lattice="3.128588 0.0 0.0 -1.5642939988088433 2.709436998432005 0.0 0.0 0.0 5.016955" Properties=species:S:1:pos:R:3:spacegroup_kinds:I:1:momenta:R:3:forces:R:3 spacegroup="P 1" unit_cell=conventional occupancy="_JSON {\"0\": {\"Al\": 1}, \"1\": {\"Al\": 1}, \"2\": {\"N\": 1}, \"3\": {\"N\": 1}}" energy=-29.574628829956055 free_energy=-29.574628829956055 stress="-0.023617876693606377 -0.014321369118988514 -0.011127947829663754 -0.014321369118988514 0.015029910951852798 -0.002854697871953249 -0.011127947829663754 -0.002854697871953249 -0.014440176077187061" pbc="T T T"
Al       1.53421960       0.88369267       2.53780582        0       1.55944035       0.36820913       1.55971046       0.29264417      -0.24000467      -0.91367716
Al      -0.00048006       1.82107764       4.98837339        1       1.01688568       0.86374326      -2.47525461       0.94369555       0.52251601       0.78486425
N        1.63583965       0.96584650       4.40663187        2      -0.31021890      -0.52489315       1.27117400      -1.15103829      -0.78907144       0.05687919
N       -0.01177519       1.75252284       1.90648733        3      -2.26610721      -0.70705926      -0.35562983      -0.08530176       0.50656021       0.07193332
4
Lattice="3.128588 0.0 0.0 -1.5642939988088433 2.709436998432005 0.0 0.0 0.0 5.016955" Properties=species:S:1:pos:R:3:spacegroup_kinds:I:1:momenta:R:3:forces:R:3 spacegroup="P 1" unit_cell=conventional occupancy="_JSON {\"0\": {\"Al\": 1}, \"1\": {\"Al\": 1}, \"2\": {\"N\": 1}, \"3\": {\"N\": 1}}" energy=-29.372072219848633 free_energy=-29.372072219848633 stress="-0.005629723891615868 -0.01871931366622448 0.015849526971578598 -0.01871931366622448 -0.03227291628718376 0.017212245613336563 0.015849526971578598 0.017212245613336563 -0.007298261858522892" pbc="T T T"
Al       1.57072833       0.88046442       2.56331976        0      -0.00039240      -0.37629449      -0.57844069      -1.34386492      -0.44065952      -1.50707793
Al       0.05055072       1.86456081       4.94968567        1       0.52726998       0.77034128       1.04960239      -0.49129140      -1.36433601       1.82584763
N        1.58204799       0.88176660       4.44992393        2      -0.27832218      -1.02263367      -0.55459306       0.15003841       1.16376030      -0.85894829
N       -0.12661084       1.75915454       1.88869866        3      -0.24855550       0.62858686       0.08343135       1.68511832       0.64123523       0.54017824
4
Lattice="3.128588 0.0 0.0 -1.5642939988088433 2.709436998432005 0.0 0.0 0.0 5.016955" Properties=species:S:1:pos:R:3:spacegroup_kinds:I:1:momenta:R:3:forces:R:3 spacegroup="P 1" unit_cell=conventional occupancy="_JSON {\"0\": {\"Al\": 1}, \"1\": {\"Al\": 1}, \"2\": {\"N\": 1}, \"3\": {\"N\": 1}}" energy=-29.596925735473633 free_energy=-29.596925735473633 stress="0.015976453199982643 -0.004506149794906378 0.006018610671162605 -0.004506149794906378 -0.025499332696199417 -0.004597147926688194 0.006018610671162605 -0.004597147926688194 -0.010013783350586891" pbc="T T T"
Al       1.53284805       0.86390068       2.51395078        0      -1.59464537      -0.16469678      -1.74991342      -0.27820575       0.89915478      -0.15420368
Al       0.06317841       1.83227866       5.00948379        1       0.38439987      -1.80666583       1.59449989      -0.58708537      -0.41271737       0.16725032
N        1.58572479       0.89623785       4.41422578        2       0.14193193       1.12964911      -0.09119173       0.25704101       0.38076770       0.00228076
N       -0.08152105       1.83862417       1.90381442        3       1.06831349       0.84171353       0.24660527       0.60825026      -0.86720484      -0.01532720
4
Lattice="3.128588 0.0 0.0 -1.5642939988088433 2.709436998432005 0.0 0.0 0.0 5.016955" Properties=species:S:1:pos:R:3:spacegroup_kinds:I:1:momenta:R:3:forces:R:3 spacegroup="P 1" unit_cell=conventional occupancy="_JSON {\"0\": {\"Al\": 1}, \"1\": {\"Al\": 1}, \"2\": {\"N\": 1}, \"3\": {\"N\": 1}}" energy=-29.462553024291992 free_energy=-29.462553024291992 stress="-0.005697033833712339 0.010849458165466785 -0.00390659598633647 0.010849458165466785 -0.019133634865283966 -0.012703152373433113 -0.00390659598633647 -0.012703152373433113 -0.011871426366269588" pbc="T T T"
Al       1.48347328       0.88264393       2.44527932        0      -0.30454491       1.01149443      -0.60004432       0.88393116       0.95768332       1.70776939
Al       0.06164409       1.77681261       5.07306071        1      -0.86715229      -0.75617414       0.43048891      -0.30080640       0.71655405      -1.72280025
N        1.61717711       0.94947180       4.40498424        2       0.38645844       0.04830100       0.18623225      -0.07233900      -0.67486072       0.48910776
N       -0.01486931       1.85626152       1.92266698        3       0.78523873      -0.30362130      -0.01667676      -0.51078588      -0.99937654      -0.47407702
4
Lattice="3.128588 0.0 0.0 -1.5642939988088433 2.709436998432005 0.0 0.0 0.0 5.016955" Properties=species:S:1:pos:R:3:spacegroup_kinds:I:1:momenta:R:3:forces:R:3 spacegroup="P 1" unit_cell=conventional occupancy="_JSON {\"0\": {\"Al\": 1}, \"1\": {\"Al\": 1}, \"2\": {\"N\": 1}, \"3\": {\"N\": 1}}" energy=-29.51875114440918 free_energy=-29.51875114440918 stress="-0.023370735347270966 0.006540087051689625 -0.016098270192742348 0.006540087051689625 0.006697493139654398 -0.00048241784679703414 -0.016098270192742348 -0.00048241784679703414 -0.022161172702908516" pbc="T T T"
Al       1.50607636       0.94974317       2.46463702        0       1.15921295       0.62635260       1.50689923       1.24247575      -0.60704553       1.15697420
Al       0.01335471       1.75088040       5.06242871        1      -0.91112010       0.14825212      -0.88962668       0.51474547       0.69610626      -1.43088877
N        1.62637958       0.90489619       4.42127853        2      -0.14223533      -0.64064990       0.21498406      -0.71771765      -0.51824224      -0.07984900
N        0.02538011       1.82158369       1.88963023        3      -0.10585755      -0.13395485      -0.83225658      -1.03950346       0.42918140       0.35376370
4
Lattice="3.128588 0.0 0.0 -1.5642939988088433 2.709436998432005 0.0 0.0 0.0 5.016955" Properties=species:S:1:pos:R:3:spacegroup_kinds:I:1:momenta:R:3:forces:R:3 spacegroup="P 1" unit_cell=conventional occupancy="_JSON {\"0\": {\"Al\": 1}, \"1\": {\"Al\": 1}, \"2\": {\"N\": 1}, \"3\": {\"N\": 1}}" energy=-29.605009078979492 free_energy=-29.605009078979492 stress="0.0015960251912474632 -0.006786011625081301 -0.003095237072557211 -0.006786011625081301 0.001780712278559804 0.0017242043977603316 -0.003095237072557211 0.0017242043977603316 -0.023114005103707314" pbc="T T T"
Al       1.56693922       0.93861030       2.54470911        0       1.44875344      -0.98943792       1.48437244      -0.01659506      -0.29131538      -1.20301747
Al      -0.01304569       1.78057345       4.99752450        1       0.01689767       1.11024952      -1.70729932       0.38438547       0.02358444       0.50762671
N        1.58384203       0.87104974       4.42155571        2      -0.67927450      -0.02704924      -0.19037157      -0.39236781       0.15177776      -0.39792943
N        0.00122214       1.81989278       1.85992055        3      -0.78637667      -0.09376237       0.41329845       0.02457740       0.11595297       1.09332061
4
Lattice="3.128588 0.0 0.0 -1.5642939988088433 2.709436998432005 0.0 0.0 0.0 5.016955" Properties=species:S:1:pos:R:3:spacegroup_kinds:I:1:momenta:R:3:forces:R:3 spacegroup="P 1" unit_cell=conventional occupancy="_JSON {\"0\": {\"Al\": 1}, \"1\": {\"Al\": 1}, \"2\": {\"N\": 1}, \"3\": {\"N\": 1}}" energy=-29.470205307006836 free_energy=-29.470205307006836 stress="0.0032032798044383526 -0.017801528796553612 0.01183831412345171 -0.017801528796553612 -0.04134921357035637 0.0073598576709628105 0.01183831412345171 0.0073598576709628105 -0.005160121712833643" pbc="T T T"
Al       1.62755626       0.89950079       2.54516748        0       1.04970782      -0.99981877      -0.80202968      -1.41064644       0.15933421      -0.91778916
Al      -0.00757059       1.81703572       4.95606287        1      -0.03757981       0.11959907      -0.16512732      -0.26242477      -0.84351647       1.41445434
N        1.52756234       0.85151204       4.42065484        2      -0.42752193       0.29023003      -0.07965740       0.31765592       0.98894715      -0.00115177
N       -0.06966666       1.84442109       1.93994539        3      -0.58460617       0.58998969       1.04681447       1.35541523      -0.30476496      -0.49551344
4
Lattice="3.128588 0.0 0.0 -1.5642939988088433 2.709436998432005 0.0 0.0 0.0 5.016955" Properties=species:S:1:pos:R:3:spacegroup_kinds:I:1:momenta:R:3:forces:R:3 spacegroup="P 1" unit_cell=conventional occupancy="_JSON {\"0\": {\"Al\": 1}, \"1\": {\"Al\": 1}, \"2\": {\"N\": 1}, \"3\": {\"N\": 1}}" energy=-29.452987670898438 free_energy=-29.452987670898438 stress="-0.013225005008280277 -0.023750077933073044 0.007911497727036476 -0.023750077933073044 -0.04793209210038185 -0.00733337365090847 0.007911497727036476 -0.00733337365090847 0.028632936999201775" pbc="T T T"
Al       1.63184037       0.85684026       2.46693546        0      -0.97589044      -0.55899619      -1.34838281      -1.39010215       1.11026299       1.17304027
Al      -0.02377745       1.82170283       4.98999602        1      -0.28018817       0.45883534       1.28013504      -0.08532566       0.08283411       0.34697211
N        1.52792698       0.92957746       4.44479005        2       0.11446454       0.97873227       0.08012579       0.22036175      -0.17398635       0.05599238
N       -0.04718869       1.83921504       2.00086012        3       1.14161393      -0.87857144      -0.01187798       1.25506568      -1.01911068      -1.57600451
4
Lattice="3.128588 0.0 0.0 -1.5642939988088433 2.709436998432005 0.0 0.0 0.0 5.016955" Properties=species:S:1:pos:R:3:spacegroup_kinds:I:1:momenta:R:3:forces:R:3 spacegroup="P 1" unit_cell=conventional occupancy="_JSON {\"0\": {\"Al\": 1}, \"1\": {\"Al\": 1}, \"2\": {\"N\": 1}, \"3\": {\"N\": 1}}" energy=-29.53631591796875 free_energy=-29.53631591796875 stress="-0.01985768787562847 0.013828934170305729 -0.005717323627322912 0.013828934170305729 -0.003163962857797742 -0.0016709871124476194 -0.005717323627322912 -0.0016709871124476194 -0.006260589696466923" pbc="T T T"
Al       1.56291506       0.86348346       2.43836898        0      -1.44558787       0.38889178       0.34075055       0.67285818       0.11609274       1.45909750
Al      -0.01834142       1.83613136       5.05736570        1       0.19731505      -0.00921601       1.04742082       0.06595143       0.15003556      -1.19267452
N        1.54726695       0.95741149       4.47045643        2      -0.01023996       0.05685096       0.14844015       0.09761509      -0.44420871      -0.65174907
N        0.05576965       1.77068663       1.90062723        3       1.25851267      -0.43652675      -1.53661150      -0.83642471       0.17808023       0.38532603
4
Lattice="3.128588 0.0 0.0 -1.5642939988088433 2.709436998432005 0.0 0.0 0.0 5.016955" Properties=species:S:1:pos:R:3:spacegroup_kinds:I:1:momenta:R:3:forces:R:3 spacegroup="P 1" unit_cell=conventional occupancy="_JSON {\"0\": {\"Al\": 1}, \"1\": {\"Al\": 1}, \"2\": {\"N\": 1}, \"3\": {\"N\": 1}}" energy=-29.5310001373291 free_energy=-29.5310001373291 stress="-0.018294179812073708 0.01570744439959526 -0.011607698164880276 0.01570744439959526 0.00314789148978889 0.0046055931597948074 -0.011607698164880276 0.0046055931597948074 -0.017258932814002037" pbc="T T T"
Al       1.54701074       0.87273545       2.46070918        0       0.71855766      -0.11584352       0.49435365       1.07476747      -0.28505749       1.06925392
Al      -0.01761628       1.84389394       5.05391120        1       0.19346372       0.17720472      -0.69190171       0.23187463      -0.07941553      -1.16825199
N        1.56395352       0.94331125       4.45961397        2       0.32487490      -0.12409482      -0.51346255      -0.11546966      -0.20503706      -0.72920042
N        0.06831346       1.75176761       1.87546335        3      -1.23689635       0.06273358       0.71101061      -1.19117236       0.56951010       0.82819802
4
Lattice="3.128588 0.0 0.0 -1.5642939988088433 2.709436998432005 0.0 0.0 0.0 5.016955" Properties=species:S:1:pos:R:3:spacegroup_kinds:I:1:momenta:R:3:forces:R:3 spacegroup="P 1" unit_cell=conventional occupancy="_JSON {\"0\": {\"Al\": 1}, \"1\": {\"Al\": 1}, \"2\": {\"N\": 1}, \"3\": {\"N\": 1}}" energy=-29.61321449279785 free_energy=-29.61321449279785 stress="-0.008381727151572704 -0.004276556428521872 0.005492815747857094 -0.004276556428521872 -0.01393723115324974 0.0014804544625803828 0.005492815747857094 0.0014804544625803828 0.012475471943616867" pbc="T T T"
Al       1.57767909       0.87033377       2.48321565        0       0.42145871      -0.10086077       0.75449338      -0.50598669       0.14215343       0.64867681
Al       0.00878679       1.84488742       5.00616579        1       0.94842533       0.04829704      -0.67234662      -0.28190994      -0.37569743       0.05942865
N        1.54733740       0.91884309       4.41695257        2      -0.50233587      -0.06173876      -0.86681641       0.26756677       0.16352510       0.34766671
N       -0.02491949       1.77881439       1.96659668        3      -0.86754822       0.11430247       0.78466967       0.52032971       0.07001880      -1.05577207
4
Lattice="3.128588 0.0 0.0 -1.5642939988088433 2.709436998432005 0.0 0.0 0.0 5.016955" Properties=species:S:1:pos:R:3:spacegroup_kinds:I:1:momenta:R:3:forces:R:3 spacegroup="P 1" unit_cell=conventional occupancy="_JSON {\"0\": {\"Al\": 1}, \"1\": {\"Al\": 1}, \"2\": {\"N\": 1}, \"3\": {\"N\": 1}}" energy=-29.55784034729004 free_energy=-29.55784034729004 stress="-0.016363993287086487 -0.0029476729687303305 0.012903852388262749 -0.0029476729687303305 -0.006207882426679134 0.0015375984366983175 0.012903852388262749 0.0015375984366983175 -0.0027145801577717066" pbc="T T T"
Al       1.59068812       0.88023426       2.52274584        0      -0.41625691       0.17887006       0.33160775      -0.90884256      -0.14030842      -0.36867946
Al       0.01872291       1.83477378       4.97781992        1       0.14974048      -0.20763112      -0.17578560      -0.72829771      -0.10046394       0.72652632
N        1.52039170       0.92489995       4.39464376        2       0.19754295       0.25939938       0.47781863       0.72475940      -0.09605007       0.71574497
N       -0.04216867       1.77342029       1.96745703        3       0.06897342      -0.23063837      -0.63364077       0.91238081       0.33682242      -1.07359183
4
Lattice="3.128588 0.0 0.0 -1.5642939988088433 2.709436998432005 0.0 0.0 0.0 5.016955" Properties=species:S:1:pos:R:3:spacegroup_kinds:I:1:momenta:R:3:forces:R:3 spacegroup="P 1" unit_cell=conventional occupancy="_JSON {\"0\": {\"Al\": 1}, \"1\": {\"Al\": 1}, \"2\": {\"N\": 1}, \"3\": {\"N\": 1}}" energy=-29.621109008789062 free_energy=-29.621109008789062 stress="-0.02150077559053898 0.005276245065033436 -0.0032675040420144796 0.005276245065033436 0.010657827369868755 0.0019248934695497155 -0.0032675040420144796 0.0019248934695497155 -0.0015900559956207871" pbc="T T T"
Al       1.54767645       0.89587759       2.50832857        0      -0.85810022       0.46896554      -1.00002972       0.39160544      -0.39029202      -0.15032193
Al       0.00665803       1.82067514       5.00342492        1      -0.72966970      -0.11082636       1.46536681      -0.00950142       0.22697271       0.34862816
N        1.57185926       0.94293301       4.45440729        2       0.62349882      -0.37686511       0.64593189      -0.01969701      -0.43335479      -0.83890069
N        0.01256035       1.75229423       1.88600538        3       0.96427102       0.01872593      -1.11126897      -0.36240679       0.59667414       0.64059490
4
Lattice="3.128588 0.0 0.0 -1.5642939988088433 2.709436998432005 0.0 0.0 0.0 5.016955" Properties=species:S:1:pos:R:3:spacegroup_kinds:I:1:momenta:R:3:forces:R:3 spacegroup="P 1" unit_cell=conventional occupancy="_JSON {\"0\": {\"Al\": 1}, \"1\": {\"Al\": 1}, \"2\": {\"N\": 1}, \"3\": {\"N\": 1}}" energy=-29.520856857299805 free_energy=-29.520856857299805 stress="-0.014047462493181229 0.01182103157043457 -0.014255572110414505 0.01182103157043457 -0.005614659748971462 0.009361518546938896 -0.014255572110414505 0.009361518546938896 -0.019571006298065186" pbc="T T T"
Al       1.52999425       0.91403916       2.46474574        0       0.09545154      -0.23101206      -1.18071282       1.21875691      -0.63577175       0.99290377
Al      -0.00890654       1.82180734       5.05208962        1       0.31216896      -0.10747428       0.45537762       0.39472741      -0.38378620      -1.12710476
N        1.59437711       0.88605555       4.45928989        2      -0.04798986      -0.53350347      -0.20523382      -0.40810528       0.35579073      -0.79021680
N        0.05384447       1.77207214       1.87145003        3      -0.35963070       0.87198980       0.93056906      -1.20537913       0.66376716       0.92441773
4
Lattice="3.128588 0.0 0.0 -1.5642939988088433 2.709436998432005 0.0 0.0 0.0 5.016955" Properties=species:S:1:pos:R:3:spacegroup_kinds:I:1:momenta:R:3:forces:R:3 spacegroup="P 1" unit_cell=conventional occupancy="_JSON {\"0\": {\"Al\": 1}, \"1\": {\"Al\": 1}, \"2\": {\"N\": 1}, \"3\": {\"N\": 1}}" energy=-29.618789672851562 free_energy=-29.618789672851562 stress="0.010117520578205585 -0.0018219811609014869 -0.001873150235041976 -0.0018219811609014869 -0.024783344939351082 0.0045911711640655994 -0.001873150235041976 0.0045911711640655994 2.6593248549033888e-05" pbc="T T T"
Al       1.53818032       0.90928017       2.47247637        0       0.23228560      -0.27447330       1.41733286       0.21200976       0.18702236       0.85530108
Al       0.01802690       1.81430745       5.03506513        1       0.60360820      -0.42930281      -1.11140661       0.03760229      -0.69444335      -0.55142605
N        1.59518015       0.85128047       4.42414641        2       0.09084613       0.02420719      -0.77345583      -0.19470166       0.84070754       0.01228821
N       -0.01452990       1.83034432       1.92467358        3      -0.92673998       0.67956890       0.46752952      -0.05491031      -0.33328652      -0.31616306
4
Lattice="3.128588 0.0 0.0 -1.5642939988088433 2.709436998432005 0.0 0.0 0.0 5.016955" Properties=species:S:1:pos:R:3:spacegroup_kinds:I:1:momenta:R:3:forces:R:3 spacegroup="P 1" unit_cell=conventional occupancy="_JSON {\"0\": {\"Al\": 1}, \"1\": {\"Al\": 1}, \"2\": {\"N\": 1}, \"3\": {\"N\": 1}}" energy=-29.623741149902344 free_energy=-29.623741149902344 stress="0.004300225991755724 -0.008672811090946198 0.002881864318624139 -0.008672811090946198 -0.006943746469914913 -0.004434429574757814 0.002881864318624139 -0.004434429574757814 -0.01483920682221651" pbc="T T T"
Al       1.54321202       0.89379620       2.53645985        0      -0.00705465      -0.41529185       0.79444828      -0.25250164       0.39302838      -0.87834364
Al       0.03580898       1.79893954       4.98957809        1       0.09337926      -0.29525120      -0.61191816      -0.16600807       0.14057869       0.62745208
N        1.59619758       0.90645095       4.40111843        2      -0.02189843       1.09350654       0.27120862      -0.08900183      -0.09593533       0.34911197
N       -0.05911265       1.83464208       1.91219260        3      -0.06442621      -0.38296352      -0.45373883       0.50751150      -0.43767166      -0.09822001
