4
Lattice="3.128588 0.0 0.0 -1.5642939988088433 2.709436998432005 0.0 0.0 0.0 5.016955" Properties=species:S:1:pos:R:3:spacegroup_kinds:I:1:forces:R:3 spacegroup="P 1" unit_cell=conventional occupancy="_JSON {\"0\": {\"Al\": 1}, \"1\": {\"Al\": 1}, \"2\": {\"N\": 1}, \"3\": {\"N\": 1}}" energy=-29.673717498779297 free_energy=-29.673717498779297 stress="-0.002225465839728713 -1.2584361002154765e-06 -1.7479655056718002e-08 -1.2584361002154765e-06 -0.0022275298833847046 -4.5150287064643635e-08 -1.7479655056718002e-08 -4.5150287064643635e-08 -0.005453705787658691" pbc="T T T"
Al       1.56429556       0.90314476       2.50490041        0      -0.00003398       0.00002102       0.00553234
Al      -0.00000156       1.80629224       5.01337791        1       0.00003389      -0.00001903       0.00552371
N        1.56429556       0.90314476       4.41849749        2      -0.00003542       0.00001994      -0.00553071
N       -0.00000156       1.80629224       1.91001999        3       0.00003539      -0.00002219      -0.00552532
