4
Lattice="3.128588 0.0 0.0 -1.5642939988088433 2.709436998432005 0.0 0.0 0.0 5.016955" Properties=species:S:1:pos:R:3:spacegroup_kinds:I:1:forces:R:3 spacegroup="P 1" unit_cell=conventional occupancy="_JSON {\"0\": {\"Al\": 1}, \"1\": {\"Al\": 1}, \"2\": {\"N\": 1}, \"3\": {\"N\": 1}}" energy=-29.673715591430664 free_energy=-29.673715591430664 stress="-0.0022254991345107555 -1.4082729649089742e-06 -7.145406488717754e-09 -1.4082729649089742e-06 -0.0022274369839578867 -3.72940682780154e-08 -7.145406488717754e-09 -3.72940682780154e-08 -0.005453797057271004" pbc="T T T"
Al       1.56429556       0.90314476       2.50490041        0      -0.00003408       0.00001872       0.00553284
Al      -0.00000156       1.80629224       5.01337791        1       0.00003499      -0.00001954       0.00552254
N        1.56429556       0.90314476       4.41849749        2      -0.00003678       0.00002029      -0.00552978
N       -0.00000156       1.80629224       1.91001999        3       0.00003591      -0.00001935      -0.00552525
