4
Lattice="3.128588 0.0 0.0 -1.5642939988088433 2.709436998432005 0.0 0.0 0.0 5.016955" Properties=species:S:1:pos:R:3:spacegroup_kinds:I:1:forces:R:3 spacegroup="P 1" unit_cell=conventional occupancy="_JSON {\"0\": {\"Al\": 1}, \"1\": {\"Al\": 1}, \"2\": {\"N\": 1}, \"3\": {\"N\": 1}}" energy=-29.673717498779297 free_energy=-29.673717498779297 stress="-0.0022254406940191984 -1.4128646625977126e-06 -2.2090805629204624e-08 -1.4128646625977126e-06 -0.0022274325601756573 -2.7900561860860762e-08 -2.2090805629204624e-08 -2.7900561860860762e-08 -0.005453675054013729" pbc="T T T"
Al       1.56429556       0.90314476       2.50490041        0      -0.00003493       0.00002004       0.00553159
Al      -0.00000156       1.80629224       5.01337791        1       0.00003423      -0.00002055       0.00552424
N        1.56429556       0.90314476       4.41849749        2      -0.00003622       0.00002131      -0.00552987
N       -0.00000156       1.80629224       1.91001999        3       0.00003691      -0.00002069      -0.00552584
