56
Lattice="10.7619164 0.0 0.0 -9.665296305262016 4.732958053065482 0.0 -0.5483100463354086 -2.3664790220718444 10.484177494289693" Properties=species:S:1:pos:R:3:spacegroup_kinds:I:1:forces:R:3 spacegroup="P 1" unit_cell=conventional occupancy="_JSON {\"0\": {\"H\": 1}, \"1\": {\"H\": 1}, \"2\": {\"H\": 1}, \"3\": {\"H\": 1}, \"4\": {\"H\": 1}, \"5\": {\"H\": 1}, \"6\": {\"H\": 1}, \"7\": {\"H\": 1}, \"8\": {\"H\": 1}, \"9\": {\"H\": 1}, \"10\": {\"H\": 1}, \"11\": {\"H\": 1}, \"12\": {\"H\": 1}, \"13\": {\"H\": 1}, \"14\": {\"H\": 1}, \"15\": {\"H\": 1}, \"16\": {\"H\": 1}, \"17\": {\"H\": 1}, \"18\": {\"H\": 1}, \"19\": {\"H\": 1}, \"20\": {\"H\": 1}, \"21\": {\"H\": 1}, \"22\": {\"H\": 1}, \"23\": {\"H\": 1}, \"24\": {\"H\": 1}, \"25\": {\"H\": 1}, \"26\": {\"H\": 1}, \"27\": {\"H\": 1}, \"28\": {\"H\": 1}, \"29\": {\"H\": 1}, \"30\": {\"H\": 1}, \"31\": {\"H\": 1}, \"32\": {\"C\": 1}, \"33\": {\"C\": 1}, \"34\": {\"C\": 1}, \"35\": {\"C\": 1}, \"36\": {\"C\": 1}, \"37\": {\"C\": 1}, \"38\": {\"C\": 1}, \"39\": {\"C\": 1}, \"40\": {\"C\": 1}, \"41\": {\"C\": 1}, \"42\": {\"C\": 1}, \"43\": {\"C\": 1}, \"44\": {\"C\": 1}, \"45\": {\"C\": 1}, \"46\": {\"C\": 1}, \"47\": {\"C\": 1}, \"48\": {\"O\": 1}, \"49\": {\"O\": 1}, \"50\": {\"O\": 1}, \"51\": {\"O\": 1}, \"52\": {\"O\": 1}, \"53\": {\"O\": 1}, \"54\": {\"O\": 1}, \"55\": {\"O\": 1}}" energy=-315.21038818359375 free_energy=-315.21038818359375 stress="0.0014446325367316604 -0.0005629138322547078 8.555308284030616e-08 -0.0005629138322547078 -0.0008545963792130351 -6.889450787639362e-08 8.555308284030616e-08 -6.889450787639362e-08 0.0015755968634039164" pbc="T T T"
H       -0.01146673       2.27735377       1.83228363        0       0.05954181      -0.00327653       0.06233842
H        0.46354042      -0.32622646       8.65189389        1      -0.05491703       0.02317683      -0.06235471
H        7.11783644      -0.62125596       5.76730111        2       0.06303629      -0.00415038      -0.05874494
H        3.54784284       0.20590514       4.71687607        3      -0.05845422       0.02398667       0.05873998
H        5.94073499       0.08912525       3.40980511        4      -0.05954035       0.00327788      -0.06233676
H        4.91741780       0.32622654       7.07437241        5       0.05491480      -0.02316962       0.06236479
H       -1.73687825       0.62125612       9.95896513        6      -0.06303764       0.00415862       0.05874458
H        2.38142539       2.16057388       0.52521269        7       0.05845500      -0.02398837      -0.05874313
H       -1.38551754       1.18149075       2.11598469        8      -0.01113759       0.08955122       0.00594886
H       -8.44966009       2.81824228       8.36819218        9       0.04931390       0.07553617      -0.00592627
H       -2.58205883       2.70548917       6.85853646       10       0.02489215       0.08117924       0.03102910
H       -6.70482302       3.66072965       3.62563947       11       0.01337804       0.08383633      -0.03101366
H       -3.44713062       1.18498829       3.12610408       12       0.01115911      -0.08955056      -0.00594435
H       -6.59659445       1.91471577       7.35807407       13      -0.04930639      -0.07554537       0.00593421
H       -1.70227922       2.02746897       8.86772962       14      -0.02490148      -0.08118902      -0.03099491
H       -7.79312147       3.43870742       1.61644926       15      -0.01337445      -0.08383898       0.03100609
H       -0.77623955       0.71965044       4.36329758       16      -0.01323482      -0.01213508       0.02308631
H        1.56195590       2.67141835       6.12088029       17       0.00653469      -0.01672799      -0.02309623
H       -0.46326720       1.89389614       6.16073604       18       0.01919631      -0.01968149       0.01018729
H        0.70065483      -0.86930481       4.32344242       19      -0.02583123      -0.00920730      -0.01018299
H        6.70550784       1.64682866       0.87879114       20       0.01323279       0.01213513      -0.02308477
H       -5.84629403       2.06153966       9.60538593       21      -0.00653617       0.01672596       0.02309487
H        5.84422538      -1.89389610       9.56553024       22      -0.01919022       0.01966948      -0.01017786
H       -5.53330302       3.23578383       0.91864627       23       0.02584116       0.00921569       0.01018931
H        0.25118893       0.51320651       1.94904363       24      -0.01400639      -0.01703857      -0.02868776
H       -0.54820846      -1.79509607       8.53513266       25       0.00519002      -0.02145229       0.02867861
H       -2.80824660       2.46883416       5.11321221       26      -0.03240822      -0.01272136       0.00990956
H       -6.60574339       3.34870703       5.37096440       27       0.02347748      -0.02566892      -0.00992403
H       -5.08383701       1.85327247       3.29304511       28       0.01400403       0.01703781       0.02868906
H       -4.83274950       1.79509621       7.19113350       29      -0.00520876       0.02144501      -0.02866545
H       -0.92778153       4.63060280       0.12887634       30       0.03240982       0.01272231      -0.00991064
H        2.32140525       1.38425107      10.35530180       31      -0.02347582       0.02567090       0.00991889
C       -0.12855713       1.44666455       3.84724417       32      -0.06474328      -0.02297656       0.02711040
C        0.20337421      -1.12376648       6.63693322       33       0.04808316      -0.04911298      -0.02706107
C       -0.77313051       2.84277400       5.69386795       34       0.01803321      -0.04222402       0.05796000
C        1.39625479      -0.15339355       4.79030936       35      -0.03474253      -0.02991378      -0.05791830
C        6.05782527       0.91981442       1.39484461       36       0.06475970       0.02297433      -0.02710599
C       -5.58433220       1.12376664       9.08933301       37      -0.04808987       0.04911396       0.02707851
C       -3.51120741       1.89018398      10.03239815       38      -0.01806939       0.04223121      -0.05796711
C        4.53301351       2.51987247       0.45177956       39       0.03474662       0.02992252       0.05790881
C       -0.32629464       1.35816529       2.34320610       40       0.01374745       0.00373547      -0.01267635
C        0.34204071      -1.29021280       8.14097360       41      -0.01072630       0.00946373       0.01264167
C       -2.26788799       3.05478921       5.86652618       42      -0.01084341       0.00948893      -0.01264063
C        2.83194262      -0.62035933       4.61765398       43       0.01386639       0.00376165       0.01261052
C        6.25556283       1.00831377       2.89888264       44      -0.01376721      -0.00373855       0.01266700
C       -5.72299918       1.29021260       7.58529265       45       0.01074393      -0.00945202      -0.01267757
C       -2.01645027       1.67816876       9.85974051       46       0.01086627      -0.00949191       0.01260919
C        3.09732575       2.98683832       0.62443475       47      -0.01388379      -0.00375849      -0.01259776
O       -0.42617555       2.75832689       4.28195552       48      -0.00160972      -0.01560085      -0.00607013
O        1.04750943      -0.07664206       6.20222131       49      -0.00535200      -0.01474461       0.00606114
O       -1.17299330      -0.80891943       6.27987374       50      -0.00940091      -0.01381597      -0.00193654
O        1.24603232       1.12411993       4.20430308       51       0.00225531      -0.01656166       0.00193440
O       -3.30985252       4.34111018       0.96013315       52       0.00160949       0.01560110       0.00606041
O        4.33344869       0.07664207       9.52404498       53       0.00534973       0.01474288      -0.00606585
O       -4.20796492       0.80891949       9.44639258       54       0.00941828       0.01382570       0.00193582
O        4.68323598       1.24235914       1.03778562       55      -0.00226754       0.01654626      -0.00193182
