32
Lattice="6.17176593 0.0 0.0 0.0 8.01859859 0.0 0.0 0.0 13.03281824" Properties=species:S:1:pos:R:3:spacegroup_kinds:I:1:forces:R:3 spacegroup="P 1" unit_cell=conventional occupancy="_JSON {\"0\": {\"Li\": 1}, \"1\": {\"Li\": 1}, \"2\": {\"Li\": 1}, \"3\": {\"Li\": 1}, \"4\": {\"Li\": 1}, \"5\": {\"Li\": 1}, \"6\": {\"Li\": 1}, \"7\": {\"Li\": 1}, \"8\": {\"Li\": 1}, \"9\": {\"Li\": 1}, \"10\": {\"Li\": 1}, \"11\": {\"Li\": 1}, \"12\": {\"P\": 1}, \"13\": {\"P\": 1}, \"14\": {\"P\": 1}, \"15\": {\"P\": 1}, \"16\": {\"S\": 1}, \"17\": {\"S\": 1}, \"18\": {\"S\": 1}, \"19\": {\"S\": 1}, \"20\": {\"S\": 1}, \"21\": {\"S\": 1}, \"22\": {\"S\": 1}, \"23\": {\"S\": 1}, \"24\": {\"S\": 1}, \"25\": {\"S\": 1}, \"26\": {\"S\": 1}, \"27\": {\"S\": 1}, \"28\": {\"S\": 1}, \"29\": {\"S\": 1}, \"30\": {\"S\": 1}, \"31\": {\"S\": 1}}" energy=-140.3463134765625 free_energy=-140.3463134765625 stress="-0.0028886464424431324 -2.1767494473579063e-08 -2.228312645513597e-08 -2.1767494473579063e-08 -0.004072299227118492 1.4911389456528923e-08 -2.228312645513597e-08 1.4911389456528923e-08 -0.0025935766752809286" pbc="T T T"
Li       2.40166819       0.26892250       4.33377964        0      -0.01548957       0.00236014       0.00063147
Li       3.77009789       7.74967599       8.69903840        1       0.01548872      -0.00235991      -0.00063236
Li       5.48755098       7.74967601       2.18262940        2      -0.01549258      -0.00236234      -0.00063277
Li       0.68421484       0.26892248      10.85018864        3       0.01549085       0.00236199       0.00063261
Li       3.77009787       4.27822189       8.69903839        4       0.01548799       0.00235793      -0.00063419
Li       2.40166814       3.74037678       4.33377961        5      -0.01548901      -0.00236008       0.00063357
Li       0.68421484       3.74037680      10.85018867        6       0.01549111      -0.00236154       0.00063159
Li       5.48755103       4.27822189       2.18262941        7      -0.01549304       0.00236068      -0.00063026
Li       3.08588298      -0.00000011       0.00000010        8      -0.00000104       0.00000052       0.00000057
Li      -0.00000000       0.00000003       6.51640920        9       0.00000075       0.00000110      -0.00000091
Li       3.08588295       4.00929943       0.00000001       10      -0.00000083      -0.00000100       0.00000064
Li      -0.00000001       4.00929925       6.51640918       11      -0.00000060      -0.00000066      -0.00000089
P        0.93932948       2.00464966       1.16793464       12      -0.00066520      -0.00000223       0.03303343
P        5.23243616       6.01394900      11.86488415       13       0.00066672       0.00000093      -0.03305590
P        4.02521219       6.01394904       5.34847525       14      -0.00064918      -0.00000190      -0.03306184
P        2.14655380       2.00464962       7.68434322       15       0.00065439       0.00000069       0.03305333
S        5.07612373       2.00464962       1.30682514       16       0.00279875       0.00000199       0.01274896
S        1.09564222       6.01394892      11.72599296       17      -0.00280143       0.00000004      -0.01274619
S        1.99024109       6.01394896       5.20958388       18       0.00279333       0.00000061      -0.01274420
S        4.18152493       2.00464956       7.82323422       19      -0.00279024       0.00000052       0.01274782
S        1.68772169       2.00464967      12.25093570       20       0.03397134       0.00000043       0.02524833
S        4.48404419       6.01394894       0.78188244       21      -0.03397352       0.00000079      -0.02523421
S        4.77360470       6.01394895       7.29829160       22       0.03397293       0.00000107      -0.02523751
S        1.39816138       2.00464966       5.73452694       23      -0.03397440       0.00000034       0.02524095
S        1.68016696       0.28147976       2.00960391       24       0.02273460      -0.00259344      -0.01692000
S        4.49159910       7.73711887      11.02321431       25      -0.02273144       0.00259107       0.01692370
S        4.76604991       7.73711917       4.50680507       26       0.02272815       0.00258166       0.01692806
S        1.40571582       0.28147964       8.52601308       27      -0.02272837      -0.00258571      -0.01692815
S        4.49159903       4.29077894      11.02321431       28      -0.02273266      -0.00259114       0.01692442
S        1.68016710       3.72781956       2.00960390       29       0.02273273       0.00259299      -0.01692124
S        1.40571582       3.72781971       8.52601313       30      -0.02272814       0.00258520      -0.01692698
S        4.76604994       4.29077865       4.50680510       31       0.02272883      -0.00258097       0.01692805
