13
Lattice="7.26870274 0.0 0.0 3.634351370000001 6.294881225397555 0.0 3.634351370000001 2.0982937417991856 5.934870934989993" Properties=species:S:1:pos:R:3:spacegroup_kinds:I:1:momenta:R:3:forces:R:3 spacegroup="P 1" unit_cell=conventional occupancy="_JSON {\"0\": {\"Li\": 1}, \"1\": {\"Li\": 1}, \"2\": {\"Li\": 1}, \"3\": {\"Li\": 1}, \"4\": {\"Li\": 1}, \"5\": {\"Li\": 1}, \"6\": {\"P\": 1}, \"7\": {\"S\": 1}, \"8\": {\"S\": 1}, \"9\": {\"S\": 1}, \"10\": {\"S\": 1}, \"11\": {\"S\": 1}, \"12\": {\"Cl\": 1}}" energy=-53.33300018310547 free_energy=-53.33300018310547 stress="-0.0032100516837090254 -0.0028877060394734144 -0.0021372968330979347 -0.0028877060394734144 -0.004387208726257086 -7.04142585163936e-05 -0.0021372968330979347 -7.04142585163936e-05 0.0001025787423714064" pbc="T T T"
Li       9.24616870       7.22130222       3.13056211        0      -0.19171607      -0.03788140       0.23120692      -0.18591020       0.16261426      -0.12885007
Li      12.54447973       5.42327178       5.84993975        1      -0.10088283       0.22422939       0.24962735       0.02832796       0.03474902      -0.06075604
Li       9.28033116       5.15870444       5.74338188        2      -0.01529838      -0.34695884       0.12075611       0.17789672      -0.03358341       0.13178994
Li      12.51833518       7.24165755       3.12736699        3       0.02525205      -0.08866246      -0.13817439       0.09350074       0.04132710      -0.01524451
Li      10.91993693       4.46805377       3.05157738        4       0.24749200       0.36831510      -0.08275417       0.13992706      -0.18044680      -0.15298754
Li      10.72743584       8.19687351       5.74062009        5      -0.55344238      -0.11443630      -0.14539636      -0.10669124       0.07169764       0.18307708
P        7.29168194       4.21707670       2.97154601        6      -0.09545941       0.27274440       0.19718354       0.19227485      -0.38547164       0.28473765
S        7.25413765       6.12605911       2.28653226        7      -0.01497829       0.10079798       0.13765168       0.08326706       0.38836870      -0.19310060
S        8.99019533       3.22499532       2.33445942        8       0.45972818      -0.22077601       0.12317775      -0.04657804       0.13768737       0.00115465
S        5.67148989       3.21648891       2.27134828        9       1.16942517      -0.32377836       0.02375077      -0.51701617      -0.17894983      -0.14893302
S        7.23508241       4.20186433       5.03927734       10      -0.12818266       0.21941869      -0.41224065      -0.04913770       0.04423758      -0.11140604
S       10.85697249       6.29583872       4.44450719       11      -0.40273066       0.02075049       0.14783832       0.16342433      -0.11922994       0.15868574
Cl      -0.01128254       0.00807777      -0.04031152       12      -0.39920675      -0.07376267      -0.45262686       0.02671462       0.01699998       0.05183277
