13
Lattice="7.26870274 0.0 0.0 3.634351370000001 6.294881225397555 0.0 3.634351370000001 2.0982937417991856 5.934870934989993" Properties=species:S:1:pos:R:3:spacegroup_kinds:I:1:momenta:R:3:forces:R:3 spacegroup="P 1" unit_cell=conventional occupancy="_JSON {\"0\": {\"Li\": 1}, \"1\": {\"Li\": 1}, \"2\": {\"Li\": 1}, \"3\": {\"Li\": 1}, \"4\": {\"Li\": 1}, \"5\": {\"Li\": 1}, \"6\": {\"P\": 1}, \"7\": {\"S\": 1}, \"8\": {\"S\": 1}, \"9\": {\"S\": 1}, \"10\": {\"S\": 1}, \"11\": {\"S\": 1}, \"12\": {\"Cl\": 1}}" energy=-53.3634147644043 free_energy=-53.3634147644043 stress="-0.0007942069205455482 -2.44541041638513e-07 -1.645815075335122e-07 -2.44541041638513e-07 -0.000793943356256932 -1.0438066055939998e-07 -1.645815075335122e-07 -1.0438066055939998e-07 -0.0007939166389405727" pbc="T T T"
Li       9.25387995       7.24703237       3.10460814        0       0.00000000       0.00000000       0.00000000       0.00422553      -0.00243447       0.00344799
Li      12.55222827       5.34273008       5.79769826        1       0.00000000       0.00000000       0.00000000      -0.00421098       0.00243298      -0.00344100
Li       9.25387995       5.34273008       5.79769826        2       0.00000000       0.00000000       0.00000000       0.00422451       0.00243857      -0.00344665
Li      12.55222827       7.24703237       3.10460814        3       0.00000000       0.00000000       0.00000000      -0.00421163      -0.00243065       0.00344013
Li      10.90305411       4.39057894       3.10460814        4       0.00000000       0.00000000       0.00000000       0.00000249       0.00487580       0.00344765
Li      10.90305411       8.19918351       5.79769826        5       0.00000000       0.00000000       0.00000000       0.00000208      -0.00486287      -0.00344111
P        7.26870274       4.19658748       2.96743547        6       0.00000000       0.00000000       0.00000000       0.00008570       0.00004631       0.00003625
S        7.26870637       6.13578650       2.28182731        7       0.00000000       0.00000000       0.00000000      -0.00001855      -0.01090984       0.00384786
S        8.94810016       3.22699113       2.28182731        8       0.00000000       0.00000000       0.00000000      -0.00945806       0.00544047       0.00384713
S        5.58931258       3.22699113       2.28182731        9       0.00000000       0.00000000       0.00000000       0.00937794       0.00541277       0.00382975
S        7.26870637       4.19658958       5.02426588       10       0.00000000       0.00000000       0.00000000      -0.00001882      -0.00000966      -0.01156920
S       10.90305411       6.29488123       4.45115320       11       0.00000000       0.00000000       0.00000000      -0.00000137      -0.00000093      -0.00000060
Cl       0.00000000       0.00000000       0.00000000       12       0.00000000       0.00000000       0.00000000       0.00000118       0.00000149       0.00000183
13
Lattice="7.26870274 0.0 0.0 3.634351370000001 6.294881225397555 0.0 3.634351370000001 2.0982937417991856 5.934870934989993" Properties=species:S:1:pos:R:3:spacegroup_kinds:I:1:momenta:R:3:forces:R:3 spacegroup="P 1" unit_cell=conventional occupancy="_JSON {\"0\": {\"Li\": 1}, \"1\": {\"Li\": 1}, \"2\": {\"Li\": 1}, \"3\": {\"Li\": 1}, \"4\": {\"Li\": 1}, \"5\": {\"Li\": 1}, \"6\": {\"P\": 1}, \"7\": {\"S\": 1}, \"8\": {\"S\": 1}, \"9\": {\"S\": 1}, \"10\": {\"S\": 1}, \"11\": {\"S\": 1}, \"12\": {\"Cl\": 1}}" energy=-53.363338470458984 free_energy=-53.363338470458984 stress="-0.0006976339500397444 3.134249766389985e-07 6.478111754404381e-05 3.134249766389985e-07 -0.0008774335728958249 2.404764927632641e-06 6.478111754404381e-05 2.404764927632641e-06 -0.0007149770390242338" pbc="T T T"
Li       9.25425323       7.24919505       3.10164664        0      -0.03512433       0.12982110      -0.17260571       0.00687706      -0.01256795       0.00837229
Li      12.55242541       5.34483395       5.80083391        1      -0.03086031       0.10598829       0.12112594      -0.00340359       0.00281856      -0.01456990
Li       9.25568496       5.34230117       5.79668968        2       0.12377070      -0.01153082      -0.03201471      -0.00217932      -0.00208639       0.00046309
Li      12.55194418       7.24778115       3.10584254        3      -0.01183225       0.09193783       0.06886911       0.00144239      -0.00352108       0.00223162
Li      10.90194938       4.39421206       3.10251717        4      -0.06063234       0.19160614      -0.12303325       0.00624523       0.00023212      -0.00131770
Li      10.90150420       8.19981776       5.79627710        5       0.00101372      -0.00254963      -0.10181910      -0.00142054      -0.00758330       0.00196999
P        7.26909484       4.19591721       2.96771002        6       0.11459611      -0.05873442       0.03964472      -0.01624672       0.00803903       0.00732679
S        7.26873048       6.13527540       2.28195044        7      -0.12482398      -0.14327494       0.04350073      -0.00156389      -0.01430268       0.00333739
S        8.94870050       3.22738007       2.28265186        8       0.21588683       0.15072979       0.11332243      -0.00626859      -0.00080896       0.00464831
S        5.58899166       3.22624489       2.28198391        9       0.05644944      -0.23932579       0.14795689       0.01591050       0.01812264       0.00158942
S        7.26840108       4.19551779       5.02503036       10      -0.09962488      -0.15300592       0.18570375       0.00120386       0.00759326      -0.01906776
S       10.90285860       6.29518001       4.45060067       11      -0.06448703      -0.03704585      -0.14828555       0.00097961       0.00534826       0.00173195
Cl      -0.00011086       0.00029626      -0.00067462       12      -0.08433167      -0.02461575      -0.14236525      -0.00157602      -0.00128349       0.00328451
13
Lattice="7.26870274 0.0 0.0 3.634351370000001 6.294881225397555 0.0 3.634351370000001 2.0982937417991856 5.934870934989993" Properties=species:S:1:pos:R:3:spacegroup_kinds:I:1:momenta:R:3:forces:R:3 spacegroup="P 1" unit_cell=conventional occupancy="_JSON {\"0\": {\"Li\": 1}, \"1\": {\"Li\": 1}, \"2\": {\"Li\": 1}, \"3\": {\"Li\": 1}, \"4\": {\"Li\": 1}, \"5\": {\"Li\": 1}, \"6\": {\"P\": 1}, \"7\": {\"S\": 1}, \"8\": {\"S\": 1}, \"9\": {\"S\": 1}, \"10\": {\"S\": 1}, \"11\": {\"S\": 1}, \"12\": {\"Cl\": 1}}" energy=-53.36284637451172 free_energy=-53.36284637451172 stress="-0.0006824074662290514 -4.073128366144374e-05 0.0001382665941491723 -4.073128366144374e-05 -0.001054452732205391 -3.9195107092382386e-05 0.0001382665941491723 -3.9195107092382386e-05 -0.0005296042654663324" pbc="T T T"
Li       9.25352273       7.25089815       3.09411752        0       0.02049041       0.02738242      -0.24356702       0.01801896      -0.02844611       0.01908775
Li      12.55096275       5.34821353       5.80507531        1      -0.06680160       0.04156491       0.21334878       0.00287607       0.00048551      -0.02988942
Li       9.26059523       5.34173090       5.79551712        2       0.14842292      -0.01984723      -0.04471876      -0.02207547      -0.01474671       0.00851694
Li      12.55106298       7.24885239       3.10700259        3      -0.02094121       0.00658250       0.06112175       0.00798300      -0.00420691       0.00066194
Li      10.90032745       4.39851150       3.09966765        4      -0.01341429       0.12597978      -0.00644216       0.01971345      -0.00564481      -0.00729508
Li      10.89977926       8.19842102       5.79286857        5      -0.02714926      -0.02226007      -0.07424829      -0.00348790       0.00118630       0.01409220
P        7.27043058       4.19510015       2.96796406        6       0.15849804      -0.12821600       0.01426717      -0.04147448       0.02485973       0.04393078
S        7.26785184       6.13462326       2.28248743        7      -0.10709360      -0.08887721       0.04200041      -0.00404030      -0.01817872      -0.00805174
S        8.95063703       3.22914705       2.28425177        8       0.34292733       0.24852777       0.25871840      -0.00113136      -0.01604352       0.00043821
S        5.59003042       3.22489288       2.28332374        9       0.25259109      -0.18849157       0.20207219       0.01543268       0.03251225      -0.01240995
S        7.26717454       4.19481328       5.02671847       10      -0.20233785       0.06248200       0.25463204       0.01018660       0.01472893      -0.03673025
S       10.90170751       6.29505432       4.44871141       11      -0.26721881      -0.00422425      -0.33245502       0.00380985       0.01446718      -0.00148181
Cl      -0.00060440       0.00034794      -0.00195203       12      -0.21797318      -0.06060302      -0.34472950      -0.00581111      -0.00097306       0.00913053
13
Lattice="7.26870274 0.0 0.0 3.634351370000001 6.294881225397555 0.0 3.634351370000001 2.0982937417991856 5.934870934989993" Properties=species:S:1:pos:R:3:spacegroup_kinds:I:1:momenta:R:3:forces:R:3 spacegroup="P 1" unit_cell=conventional occupancy="_JSON {\"0\": {\"Li\": 1}, \"1\": {\"Li\": 1}, \"2\": {\"Li\": 1}, \"3\": {\"Li\": 1}, \"4\": {\"Li\": 1}, \"5\": {\"Li\": 1}, \"6\": {\"P\": 1}, \"7\": {\"S\": 1}, \"8\": {\"S\": 1}, \"9\": {\"S\": 1}, \"10\": {\"S\": 1}, \"11\": {\"S\": 1}, \"12\": {\"Cl\": 1}}" energy=-53.36177444458008 free_energy=-53.36177444458008 stress="-0.0008391598239541054 -3.331145126139745e-05 0.0002807329874485731 -3.331145126139745e-05 -0.001142390538007021 -0.0001473997108405456 0.0002807329874485731 -0.0001473997108405456 -0.00020582546130754054" pbc="T T T"
Li       9.25491106       7.25080590       3.08668020        0       0.06210484      -0.05563271      -0.16964956       0.01834451      -0.03835885       0.02117457
Li      12.55018252       5.34716575       5.81206237        1      -0.00432595      -0.11523376       0.22215475      -0.00866041       0.00793845      -0.05719682
Li       9.26496027       5.33808091       5.79307092        2       0.15607518      -0.20543532      -0.09850439      -0.03505714      -0.02441661       0.01816271
Li      12.54811936       7.24782386       3.10722377        3      -0.10689187      -0.06141666      -0.00508542       0.01946468      -0.00111799      -0.00410147
Li      10.90182751       4.40244131       3.09661605        4       0.06262569       0.14614753      -0.11435042       0.02761450      -0.00846992      -0.01046235
Li      10.89500229       8.19816179       5.78931842        5      -0.21999144      -0.04258313      -0.11593179      -0.00664546       0.00732997       0.02622142
P        7.27223110       4.19409295       2.96783226        6       0.15918525      -0.07812384      -0.09348776      -0.07920799       0.06133958       0.09637023
S        7.26770923       6.13439266       2.28236154        7       0.03348827      -0.01417858       0.00810534      -0.01059083      -0.03054412      -0.01162024
S        8.95253443       3.23167422       2.28745149        8       0.32705654       0.38978436       0.56559021       0.02341235      -0.04473209      -0.00547779
S        5.59217334       3.22272434       2.28378983        9       0.28966268      -0.24024606      -0.16264283       0.01572351       0.04593586      -0.02261179
S        7.26610285       4.19505470       5.02946310       10      -0.12670183       0.02818022       0.47562170       0.01533702       0.01667147      -0.07594707
S       10.89846065       6.29632201       4.44679614       11      -0.50283337       0.27250370      -0.20896262       0.02656797       0.00417993       0.00728588
Cl      -0.00149034       0.00010124      -0.00411007       12      -0.12945399      -0.02376573      -0.30285721      -0.00630266       0.00424437       0.01820274
13
Lattice="7.26870274 0.0 0.0 3.634351370000001 6.294881225397555 0.0 3.634351370000001 2.0982937417991856 5.934870934989993" Properties=species:S:1:pos:R:3:spacegroup_kinds:I:1:momenta:R:3:forces:R:3 spacegroup="P 1" unit_cell=conventional occupancy="_JSON {\"0\": {\"Li\": 1}, \"1\": {\"Li\": 1}, \"2\": {\"Li\": 1}, \"3\": {\"Li\": 1}, \"4\": {\"Li\": 1}, \"5\": {\"Li\": 1}, \"6\": {\"P\": 1}, \"7\": {\"S\": 1}, \"8\": {\"S\": 1}, \"9\": {\"S\": 1}, \"10\": {\"S\": 1}, \"11\": {\"S\": 1}, \"12\": {\"Cl\": 1}}" energy=-53.360206604003906 free_energy=-53.360206604003906 stress="-0.0010245931334793568 -8.226219506468624e-05 0.0004097066994290799 -8.226219506468624e-05 -0.0011928798630833626 -0.00024308811407536268 0.0004097066994290799 -0.00024308811407536268 9.860807767836377e-05" pbc="T T T"
Li       9.25577211       7.24991388       3.08132784        0      -0.03090465      -0.05020152      -0.10077560       0.01380707      -0.03992410       0.01911669
Li      12.54900569       5.34551437       5.81861562        1      -0.05653546       0.08776974       0.12570176      -0.02058504       0.01582994      -0.07947864
Li       9.27206502       5.32808697       5.78841894        2       0.19220242      -0.31419822      -0.13036648      -0.04694821      -0.03867334       0.03502434
Li      12.54269422       7.24798758       3.10695830        3      -0.16996089       0.07025938       0.03431479       0.03612823      -0.00442673      -0.01007008
Li      10.90297419       4.40849146       3.09124040        4      -0.01397067       0.18351541      -0.12833558       0.03963269      -0.01310764      -0.01770980
Li      10.88657009       8.19778663       5.78656777        5      -0.29009000      -0.00559183      -0.06702620      -0.01205870       0.01389167       0.03670215
P        7.27424355       4.19332251       2.96804050        6       0.35270318      -0.07067829       0.06701805      -0.11666649       0.09497710       0.13496085
S        7.26837708       6.13436227       2.28202506        7       0.13113837       0.04237744      -0.14866717      -0.02254247      -0.04315253      -0.00954614
S        8.95507492       3.23359754       2.29218268        8       0.39032853       0.03722640       0.64856478       0.04537337      -0.06726340      -0.01714756
S        5.59524466       3.22066628       2.28275786        9       0.60285672      -0.19202438      -0.14811713       0.01500026       0.05887325      -0.02650149
S        7.26509355       4.19574680       5.03210302       10      -0.19813357       0.00127916       0.32981824       0.01652724       0.01575340      -0.10939959
S       10.89383985       6.29758038       4.44529263       11      -0.79138821       0.09565295      -0.21457513       0.05777308      -0.00603702       0.01493714
Cl      -0.00265802       0.00044569      -0.00596005       12      -0.11824577       0.11461375      -0.26755434      -0.00544109       0.01325938       0.02911213
13
Lattice="7.26870274 0.0 0.0 3.634351370000001 6.294881225397555 0.0 3.634351370000001 2.0982937417991856 5.934870934989993" Properties=species:S:1:pos:R:3:spacegroup_kinds:I:1:momenta:R:3:forces:R:3 spacegroup="P 1" unit_cell=conventional occupancy="_JSON {\"0\": {\"Li\": 1}, \"1\": {\"Li\": 1}, \"2\": {\"Li\": 1}, \"3\": {\"Li\": 1}, \"4\": {\"Li\": 1}, \"5\": {\"Li\": 1}, \"6\": {\"P\": 1}, \"7\": {\"S\": 1}, \"8\": {\"S\": 1}, \"9\": {\"S\": 1}, \"10\": {\"S\": 1}, \"11\": {\"S\": 1}, \"12\": {\"Cl\": 1}}" energy=-53.3587646484375 free_energy=-53.3587646484375 stress="-0.0012581036426126957 -0.0002443974371999502 0.00035450191353447735 -0.0002443974371999502 -0.001199908321723342 -0.0004281774163246155 0.00035450191353447735 -0.0004281774163246155 0.0003946182259824127" pbc="T T T"
Li       9.25300640       7.24683315       3.07883996        0      -0.08110198      -0.04431898       0.00669277       0.01152423      -0.02706695       0.01479449
Li      12.54627191       5.34892298       5.82129168        1      -0.06117744       0.08202256       0.03997165      -0.01768198       0.01645608      -0.08316443
Li       9.27525677       5.31413918       5.78358949        2       0.08042508      -0.43597480      -0.16642183      -0.03823318      -0.04202787       0.04749104
Li      12.53751000       7.25094221       3.10865703        3      -0.14805219       0.13758909       0.03000827       0.05653104      -0.01454811      -0.01766210
Li      10.90076309       4.41413658       3.08700840        4      -0.12873318       0.17920624      -0.15425155       0.06286908      -0.02013479      -0.02795360
Li      10.87607837       8.19466235       5.78285929        5      -0.29487949      -0.09768220      -0.17472887      -0.02061333       0.03211687       0.05212480
P        7.27672676       4.19249120       2.96885932        6       0.39619420      -0.23887890       0.08664236      -0.14701760       0.13628151       0.16001903
S        7.26914063       6.13442880       2.28038285        7       0.02277516       0.07094347      -0.16491644      -0.03625953      -0.06457680       0.00063328
S        8.95812591       3.23453069       2.29731844        8       0.34807006       0.19986964       0.52748251       0.06032261      -0.08002236      -0.03762986
S        5.59972330       3.21984748       2.28136526        9       0.48778274      -0.07177111      -0.16330392      -0.00251541       0.05746096      -0.02590373
S        7.26369112       4.19619590       5.03505050       10      -0.23690930       0.00961276       0.45924638       0.00888546       0.01135583      -0.13992259
S       10.88924529       6.29921751       4.44307117       11      -0.47014402       0.24221284      -0.21535783       0.06875205      -0.02453808       0.02310583
Cl      -0.00290725       0.00048994      -0.00696611       12       0.08575036      -0.03283062      -0.11106350      -0.00656344       0.01924364       0.03406783
13
Lattice="7.26870274 0.0 0.0 3.634351370000001 6.294881225397555 0.0 3.634351370000001 2.0982937417991856 5.934870934989993" Properties=species:S:1:pos:R:3:spacegroup_kinds:I:1:momenta:R:3:forces:R:3 spacegroup="P 1" unit_cell=conventional occupancy="_JSON {\"0\": {\"Li\": 1}, \"1\": {\"Li\": 1}, \"2\": {\"Li\": 1}, \"3\": {\"Li\": 1}, \"4\": {\"Li\": 1}, \"5\": {\"Li\": 1}, \"6\": {\"P\": 1}, \"7\": {\"S\": 1}, \"8\": {\"S\": 1}, \"9\": {\"S\": 1}, \"10\": {\"S\": 1}, \"11\": {\"S\": 1}, \"12\": {\"Cl\": 1}}" energy=-53.355995178222656 free_energy=-53.355995178222656 stress="-0.001563449390232563 -0.0003048980433959514 0.0003364793083164841 -0.0003048980433959514 -0.001156467478722334 -0.0006489322404377162 0.0003364793083164841 -0.0006489322404377162 0.0006793735665269196" pbc="T T T"
Li       9.24791965       7.24245430       3.08010506        0      -0.12262751      -0.14368275       0.06147030       0.00654592      -0.00314610       0.00867948
Li      12.54413570       5.35295670       5.82204573        1      -0.01599686       0.21875285      -0.00456846      -0.01427110       0.01663187      -0.08466943
Li       9.27775764       5.29732578       5.77693212        2       0.06514282      -0.49521091      -0.14291767      -0.02000838      -0.04092642       0.06823834
Li      12.53195825       7.25473059       3.11122713        3      -0.21466511       0.09111804       0.08565450       0.08040799      -0.02540022      -0.02750458
Li      10.89509141       4.42063649       3.08137432        4      -0.20966989       0.23601916      -0.13778405       0.09800225      -0.02293056      -0.03664374
Li      10.86622598       8.19242443       5.77718258        5      -0.25191899      -0.03830869      -0.12076674      -0.02993123       0.04925448       0.07991192
P        7.28090263       4.19045239       2.97014676        6       0.62255652      -0.36180723       0.06279026      -0.24028854       0.20283905       0.16503043
S        7.26879297       6.13467524       2.27991006        7      -0.08839664      -0.01160615      -0.18921380      -0.04250204      -0.09856977       0.00788374
S        8.96073451       3.23623676       2.30108893        8       0.45220012       0.21571713       0.57545830       0.09406782      -0.11054654      -0.06301684
S        5.60272338       3.21963930       2.28055064        9       0.30155694       0.01694760      -0.08078400       0.00298305       0.05505140      -0.01955798
S        7.26218667       4.19668036       5.03782923       10      -0.14404010       0.10686591       0.32933544       0.00639478       0.00221929      -0.16299868
S       10.88597683       6.30124221       4.44143336       11      -0.43759504       0.24721222      -0.05107567       0.06778935      -0.04897062       0.02797360
Cl      -0.00194678       0.00032077      -0.00875991       12       0.04345373      -0.08201716      -0.38759843      -0.00918990       0.02449416       0.03667368
13
Lattice="7.26870274 0.0 0.0 3.634351370000001 6.294881225397555 0.0 3.634351370000001 2.0982937417991856 5.934870934989993" Properties=species:S:1:pos:R:3:spacegroup_kinds:I:1:momenta:R:3:forces:R:3 spacegroup="P 1" unit_cell=conventional occupancy="_JSON {\"0\": {\"Li\": 1}, \"1\": {\"Li\": 1}, \"2\": {\"Li\": 1}, \"3\": {\"Li\": 1}, \"4\": {\"Li\": 1}, \"5\": {\"Li\": 1}, \"6\": {\"P\": 1}, \"7\": {\"S\": 1}, \"8\": {\"S\": 1}, \"9\": {\"S\": 1}, \"10\": {\"S\": 1}, \"11\": {\"S\": 1}, \"12\": {\"Cl\": 1}}" energy=-53.35203552246094 free_energy=-53.35203552246094 stress="-0.0018721998203545809 -0.00042950527858920395 0.0003663671377580613 -0.00042950527858920395 -0.00118974968791008 -0.0008381326915696263 0.0003663671377580613 -0.0008381326915696263 0.000996217131614685" pbc="T T T"
Li       9.24318138       7.23997240       3.08098918        0      -0.12396303      -0.05182422       0.03554030       0.00109486       0.01354219       0.00664465
Li      12.54453952       5.36113410       5.82207217        1       0.00731404       0.26171206       0.00732038      -0.00551534       0.01754121      -0.07700331
Li       9.28024878       5.27886561       5.77026951        2       0.05423959      -0.54862861      -0.18896864       0.00003276      -0.03934877       0.08786322
Li      12.52300604       7.25605922       3.11515193        3      -0.29528140      -0.03120631       0.14980830       0.11492483      -0.02612041      -0.04695625
Li      10.88955277       4.42711319       3.07618125        4      -0.13555172       0.13361353      -0.20042338       0.13309848      -0.02283423      -0.04251536
Li      10.85655269       8.19007653       5.77312191        5      -0.31360705      -0.09893147      -0.11741076      -0.03948977       0.07079615       0.10201952
P        7.28520332       4.18929973       2.97032487        6       0.52727184       0.11593971       0.05569281      -0.32539979       0.25014547       0.18626148
S        7.26739194       6.13450305       2.27792462        7      -0.14775009      -0.01223748      -0.19814745      -0.04443962      -0.11568949       0.02233344
S        8.96400934       3.23746047       2.30614517        8       0.35781799       0.05834495       0.69731775       0.12241040      -0.14187150      -0.09301492
S        5.60628248       3.21982406       2.27881837        9       0.61567693       0.03300514      -0.29353429       0.00339006       0.05210036      -0.01281346
S        7.26065999       4.19723484       5.04034111       10      -0.19361693       0.06732068       0.30306838       0.00048870      -0.00588471      -0.19660737
S       10.88297971       6.30368435       4.44238522       11      -0.39047578       0.23400073       0.24562553       0.05390028      -0.07988875       0.02295177
Cl      -0.00152009      -0.00109528      -0.01105470       12       0.03792561      -0.16110871      -0.49588893      -0.01449582       0.02751252       0.04083660
13
Lattice="7.26870274 0.0 0.0 3.634351370000001 6.294881225397555 0.0 3.634351370000001 2.0982937417991856 5.934870934989993" Properties=species:S:1:pos:R:3:spacegroup_kinds:I:1:momenta:R:3:forces:R:3 spacegroup="P 1" unit_cell=conventional occupancy="_JSON {\"0\": {\"Li\": 1}, \"1\": {\"Li\": 1}, \"2\": {\"Li\": 1}, \"3\": {\"Li\": 1}, \"4\": {\"Li\": 1}, \"5\": {\"Li\": 1}, \"6\": {\"P\": 1}, \"7\": {\"S\": 1}, \"8\": {\"S\": 1}, \"9\": {\"S\": 1}, \"10\": {\"S\": 1}, \"11\": {\"S\": 1}, \"12\": {\"Cl\": 1}}" energy=-53.348907470703125 free_energy=-53.348907470703125 stress="-0.002206348581239581 -0.0006577516323886812 0.00036304042441770434 -0.0006577516323886812 -0.0014410280855372548 -0.0008380712242797017 0.00036304042441770434 -0.0008380712242797017 0.001267456216737628" pbc="T T T"
Li       9.24061542       7.23741828       3.08434199        0       0.00979214      -0.06809209       0.13480606      -0.01233009       0.03313904       0.00005761
Li      12.54705057       5.36999750       5.82331264        1       0.09723513       0.22394309      -0.00458675      -0.00098494       0.01989166      -0.06875977
Li       9.28390624       5.25977871       5.76288979        2       0.10513992      -0.49154244      -0.25042912       0.01592984      -0.04338178       0.10841252
Li      12.51314525       7.25450003       3.12135133        3      -0.21702300      -0.05248704       0.18681584       0.15420696      -0.01013519      -0.07326577
Li      10.88761542       4.43137003       3.07002224        4      -0.01237372       0.07345247      -0.16674688       0.15570578      -0.02250393      -0.04434972
Li      10.84555200       8.18861359       5.76934839        5      -0.31885761      -0.01556014      -0.12985873      -0.04996844       0.08555715       0.12132008
P        7.28764101       4.19123410       2.97030457        6       0.20584554       0.40892124       0.03665031      -0.35244536       0.22127417       0.21895440
S        7.26542721       6.13372131       2.27735323        7      -0.26689120      -0.14739854      -0.02379257      -0.04274119      -0.08292779       0.02143136
S        8.96633817       3.23760930       2.31121918        8       0.30114395      -0.03621923       0.58811501       0.13208427      -0.15291181      -0.10640931
S        5.61189640       3.21974898       2.27641732        9       0.73020437      -0.14198499      -0.33947220      -0.02028411       0.04098860      -0.01349458
S        7.25829404       4.19666622       5.04293254       10      -0.47387149      -0.09490732       0.27827927      -0.00339300      -0.00213129      -0.23046327
S       10.88025979       6.30499896       4.44406418       11      -0.31138860       0.05169655       0.27040605       0.04302566      -0.11512989       0.02215552
Cl      -0.00062567      -0.00054122      -0.01543324       12       0.15104458       0.29017846      -0.58018628      -0.01880536       0.02827103       0.04441092
13
Lattice="7.26870274 0.0 0.0 3.634351370000001 6.294881225397555 0.0 3.634351370000001 2.0982937417991856 5.934870934989993" Properties=species:S:1:pos:R:3:spacegroup_kinds:I:1:momenta:R:3:forces:R:3 spacegroup="P 1" unit_cell=conventional occupancy="_JSON {\"0\": {\"Li\": 1}, \"1\": {\"Li\": 1}, \"2\": {\"Li\": 1}, \"3\": {\"Li\": 1}, \"4\": {\"Li\": 1}, \"5\": {\"Li\": 1}, \"6\": {\"P\": 1}, \"7\": {\"S\": 1}, \"8\": {\"S\": 1}, \"9\": {\"S\": 1}, \"10\": {\"S\": 1}, \"11\": {\"S\": 1}, \"12\": {\"Cl\": 1}}" energy=-53.34717559814453 free_energy=-53.34717559814453 stress="-0.002436927519738674 -0.0009014318929985166 0.00021549451048485935 -0.0009014318929985166 -0.0017872437601909041 -0.0006350013427436352 0.00021549451048485935 -0.0006350013427436352 0.0014106063172221184" pbc="T T T"
Li       9.24325537       7.23349333       3.09063820        0       0.09926314      -0.15169080       0.21301668      -0.04623956       0.05777080      -0.02477437
Li      12.54887824       5.37863091       5.82351385        1       0.10668553       0.26874299      -0.02038078       0.00170937       0.02152266      -0.05368695
Li       9.28569207       5.24242833       5.75302053        2      -0.00300485      -0.50491567      -0.27979238       0.03384082      -0.04789809       0.13536617
Li      12.50707005       7.25217700       3.12666598        3      -0.04118746      -0.06370787       0.11846952       0.17970085       0.00884835      -0.09197590
Li      10.88785701       4.43261705       3.06414312        4       0.03478664       0.01518912      -0.19427896       0.17425290      -0.01887223      -0.04157070
Li      10.83159149       8.19052290       5.76516784        5      -0.45985845       0.07233821      -0.17411823      -0.06040394       0.08175606       0.13789006
P        7.28872159       4.19424380       2.97113793        6       0.09352790       0.35687658       0.20911636      -0.33592358       0.14110871       0.21684757
S        7.26319013       6.13172316       2.27779546        7      -0.29310565      -0.32476284       0.21626097      -0.02878891      -0.01815761       0.01238215
S        8.96958828       3.23765678       2.31556124        8       0.38579880      -0.02314869       0.57107238       0.10918524      -0.14513656      -0.10429242
S        5.61858424       3.21833766       2.27341920        9       1.00193635      -0.20006071      -0.47655229      -0.04937124       0.02613074      -0.01475363
S        7.25499774       4.19601766       5.04468897       10      -0.43288571      -0.04588709       0.21963969      -0.00859920       0.00850900      -0.24257846
S       10.87751782       6.30546937       4.44572275       11      -0.40984403       0.03920071       0.16223776       0.04935513      -0.14345112       0.02533775
Cl      -0.00041907       0.00240348      -0.01919929       12      -0.08211222       0.56182607      -0.56469073      -0.01871792       0.02786925       0.04580876
13