13
Lattice="7.26870274 0.0 0.0 3.634351370000001 6.294881225397555 0.0 3.634351370000001 2.0982937417991856 5.934870934989993" Properties=species:S:1:pos:R:3:spacegroup_kinds:I:1:forces:R:3 spacegroup="P 1" unit_cell=conventional occupancy="_JSON {\"0\": {\"Li\": 1}, \"1\": {\"Li\": 1}, \"2\": {\"Li\": 1}, \"3\": {\"Li\": 1}, \"4\": {\"Li\": 1}, \"5\": {\"Li\": 1}, \"6\": {\"P\": 1}, \"7\": {\"S\": 1}, \"8\": {\"S\": 1}, \"9\": {\"S\": 1}, \"10\": {\"S\": 1}, \"11\": {\"S\": 1}, \"12\": {\"Cl\": 1}}" energy=-53.3634147644043 free_energy=-53.3634147644043 stress="-0.0007942069205455482 -2.44541041638513e-07 -1.645815075335122e-07 -2.44541041638513e-07 -0.000793943356256932 -1.0438066055939998e-07 -1.645815075335122e-07 -1.0438066055939998e-07 -0.0007939166389405727" pbc="T T T"
Li       9.25387995       7.24703237       3.10460814        0       0.00422553      -0.00243447       0.00344799
Li      12.55222827       5.34273008       5.79769826        1      -0.00421098       0.00243298      -0.00344100
Li       9.25387995       5.34273008       5.79769826        2       0.00422451       0.00243857      -0.00344665
Li      12.55222827       7.24703237       3.10460814        3      -0.00421163      -0.00243065       0.00344013
Li      10.90305411       4.39057894       3.10460814        4       0.00000249       0.00487580       0.00344765
Li      10.90305411       8.19918351       5.79769826        5       0.00000208      -0.00486287      -0.00344111
P        7.26870274       4.19658748       2.96743547        6       0.00008570       0.00004631       0.00003625
S        7.26870637       6.13578650       2.28182731        7      -0.00001855      -0.01090984       0.00384786
S        8.94810016       3.22699113       2.28182731        8      -0.00945806       0.00544047       0.00384713
S        5.58931258       3.22699113       2.28182731        9       0.00937794       0.00541277       0.00382975
S        7.26870637       4.19658958       5.02426588       10      -0.00001882      -0.00000966      -0.01156920
S       10.90305411       6.29488123       4.45115320       11      -0.00000137      -0.00000093      -0.00000060
Cl       0.00000000       0.00000000       0.00000000       12       0.00000118       0.00000149       0.00000183
