56
Lattice="10.7619164 0.0 0.0 -9.665296305262016 4.732958053065482 0.0 -0.5483100463354086 -2.3664790220718444 10.484177494289693" Properties=species:S:1:pos:R:3:spacegroup_kinds:I:1:momenta:R:3:forces:R:3 spacegroup="P 1" unit_cell=conventional occupancy="_JSON {\"0\": {\"H\": 1}, \"1\": {\"H\": 1}, \"2\": {\"H\": 1}, \"3\": {\"H\": 1}, \"4\": {\"H\": 1}, \"5\": {\"H\": 1}, \"6\": {\"H\": 1}, \"7\": {\"H\": 1}, \"8\": {\"H\": 1}, \"9\": {\"H\": 1}, \"10\": {\"H\": 1}, \"11\": {\"H\": 1}, \"12\": {\"H\": 1}, \"13\": {\"H\": 1}, \"14\": {\"H\": 1}, \"15\": {\"H\": 1}, \"16\": {\"H\": 1}, \"17\": {\"H\": 1}, \"18\": {\"H\": 1}, \"19\": {\"H\": 1}, \"20\": {\"H\": 1}, \"21\": {\"H\": 1}, \"22\": {\"H\": 1}, \"23\": {\"H\": 1}, \"24\": {\"H\": 1}, \"25\": {\"H\": 1}, \"26\": {\"H\": 1}, \"27\": {\"H\": 1}, \"28\": {\"H\": 1}, \"29\": {\"H\": 1}, \"30\": {\"H\": 1}, \"31\": {\"H\": 1}, \"32\": {\"C\": 1}, \"33\": {\"C\": 1}, \"34\": {\"C\": 1}, \"35\": {\"C\": 1}, \"36\": {\"C\": 1}, \"37\": {\"C\": 1}, \"38\": {\"C\": 1}, \"39\": {\"C\": 1}, \"40\": {\"C\": 1}, \"41\": {\"C\": 1}, \"42\": {\"C\": 1}, \"43\": {\"C\": 1}, \"44\": {\"C\": 1}, \"45\": {\"C\": 1}, \"46\": {\"C\": 1}, \"47\": {\"C\": 1}, \"48\": {\"O\": 1}, \"49\": {\"O\": 1}, \"50\": {\"O\": 1}, \"51\": {\"O\": 1}, \"52\": {\"O\": 1}, \"53\": {\"O\": 1}, \"54\": {\"O\": 1}, \"55\": {\"O\": 1}}" energy=-313.621826171875 free_energy=-313.621826171875 stress="-0.0069053987972438335 -0.0013852817937731743 -0.004504762124270201 -0.0013852817937731743 0.009439206682145596 0.005600073840469122 -0.004504762124270201 0.005600073840469122 0.013407130725681782" pbc="T T T"
H        0.49738827       1.84331583       1.77824720        0      -0.10613534      -0.09781615       0.11564491      -0.18202412       0.31332266       0.59539604
H        0.10556142      -0.11663768       8.27653520        1       0.04015975      -0.13169591       0.14437775      -0.36897501      -0.78897566       0.22591299
H        6.62289147      -0.91207441       5.20265684        2      -0.16864423       0.10450183      -0.19164105       0.98594236      -0.03108636       0.77322400
H        3.36922901       0.56254848       5.08036147        3       0.12068213      -0.12391086       0.11663879      -0.39409447      -0.59535348      -0.23537439
H        5.95301290       0.59228791       3.38812091        4       0.14110963      -0.33747310      -0.07871835      -0.93091506      -0.50391310       0.87667453
H        5.01743983       0.42520642       7.32442008        5      -0.23162830       0.06489387      -0.14197830      -0.38864696      -1.26104331      -0.47847366
H       -1.57731826       0.54128720      10.53958341        6      -0.12407260      -0.08816618      -0.07763811      -0.37741551      -0.46803236       0.30723283
H        2.69863434       2.00433355       0.26116736        7      -0.05404105       0.01557220      -0.10225848      -0.72495043      -0.67532933      -0.86530852
H       -1.22303972       1.63673978       1.75940552        8      -0.05424910       0.24253149      -0.13897881      -0.49742848      -0.09366744       0.10529742
H       -8.93359101       2.96970912       8.47514802        9      -0.06042236      -0.12559364      -0.10762103       0.36620381      -0.63051391       0.55257267
H       -2.26849125       4.25936887       6.83350217       10       0.20578923       0.12214872       0.33238474      -0.06950185      -0.47619355      -0.34378234
H       -6.68836088       4.95609485       3.39407496       11      -0.06212377       0.10325943      -0.15892739       0.13254189      -0.56484616       0.15243828
H       -3.12925518       0.32645841       3.01954355       12       0.09286640       0.17897862      -0.00989606       0.31407633       0.11227122       0.01380226
H       -6.80751106       1.79512307       7.74588638       13       0.11313854      -0.05419706      -0.04504123      -2.35592413       0.59494007      -0.52510017
H       -1.67751207       0.97559842       8.80862403       14       0.00516279      -0.30016508      -0.16851995      -0.66054332       0.17537476       0.81925768
H       -7.85157909       2.25969145       2.02092865       15       0.06193735       0.16966540       0.04109024       0.45022115       0.30493218      -0.97371924
H       -1.03679265       0.54726044       4.10971759       16       0.09384570       0.18126125      -0.07858796       0.29054382       0.47456133       0.73893207
H        1.41496393       2.60741869       5.94194781       17       0.17914724       0.16208028      -0.08142757       0.04019883      -0.18983236       0.67822683
H       -0.64058351       2.00872437       6.06364864       18      -0.05634314       0.12337177       0.04032551      -0.53551245       0.51595509      -0.09275601
H        0.85977723      -0.92446429       4.06230114       19       0.08226750       0.01615575       0.13954124      -0.43777439      -0.05474539       0.42652655
H        7.07832347       1.52716382       0.77918368       20       0.03745981       0.06298931      -0.11847514      -0.51151669      -0.36470047      -0.19009665
H       -5.65481913       2.28567743       9.73114933       21       0.07723448       0.36926420      -0.07796274       0.09997626      -0.39057115       0.05156548
H        6.08095762      -2.02800097       9.57309355       22       0.04996243       0.13992018      -0.04251195       0.10451786      -0.44055569      -0.00563474
H       -5.39307871       3.26285525       1.28813543       23      -0.08191866      -0.05415612       0.26987117      -0.86359775      -0.75485933      -0.77635181
H       -0.07299335       0.27971701       1.81916997       24       0.13898010       0.34269313       0.14181143      -0.42564452      -0.34436214       0.62045336
H       -1.06700013      -1.51563997       8.21163927       25      -0.20145792       0.01373091       0.07616495      -0.17211050      -0.24384989       0.51164800
H       -2.96209862       2.60530201       6.43440235       26       0.06315670      -0.07175142      -0.16381541       0.16209161       0.09858229       0.31126535
H       -6.35720001       3.51669238       4.57538934       27       0.16449816       0.18567594       0.02440279      -0.60310400       1.40274119      -0.34498471
H       -3.82677237       2.00991157       3.18430506       28       0.08980669      -0.11710744      -0.00472188       0.23108786       0.02060193      -0.20068482
H       -5.17636477       2.03285292       7.19923455       29       0.10905277      -0.18779775       0.15106050      -0.36808196      -0.23564991       0.74254191
H       -0.79357722       4.53174551      -0.43569611       30      -0.12628294      -0.10201870      -0.01900706      -0.09977178       0.06218743       0.11299270
H        2.31575679       1.30675558      11.36317798       31       0.12164103       0.07458556      -0.08519239       0.08103783      -0.48911193      -0.09376765
C       -0.37163603       1.38708490       3.80590664       32       0.82677629       0.29513591       0.09766199       0.43049040      -0.84296620      -2.02712512
C        0.11847911      -1.18778301       6.49983777       33      -0.62840504      -0.18736824      -0.14628005      -0.37041825       0.27214769      -0.96541911
C       -0.97555883       2.96185309       5.57576514       34      -0.36449104      -1.07571583       0.20948591       0.37155062       0.17796992       0.59155810
C        1.35011581      -0.15700504       4.68315328       35      -0.02227816       0.95830963       0.13073131       0.73834300       1.50494218       0.40339550
C        6.36784109       0.86650861       1.33870117       36       0.30590252       0.88519261       1.28776975       1.97926497      -0.30296707       0.89317936
C       -5.53677829       1.29363401       9.24627712       37       0.27688896      -0.37684054       0.66636984      -0.66257942      -0.77058089       0.58604306
C       -3.39932673       1.69730082      10.02118760       38      -0.84111643      -0.44256559       0.59809616       0.37919450       0.54999459       0.65976226
C        4.71880461       2.50518187       0.70336300       39       0.38985022       0.88224342      -0.51305400      -0.59661454       1.44277143       0.49371114
C       -0.32683935       1.26219670       2.24609214       40      -0.63948349       0.50546047       0.23424359       0.77353936       0.79701412      -0.39456156
C       -0.05210450      -1.19852069       8.01058160       41       0.11582503      -0.65736990      -0.92748033       0.85171449       1.37443125      -1.02300262
C       -2.37909936       3.46525742       6.06278726       42      -0.05353465       0.08466762      -0.15003206      -0.40583920      -0.60532749      -1.67187881
C        2.83806342      -0.17358555       4.41939532       43       0.55230151       0.76816616      -0.43150008       1.06822252      -0.67908573       0.54369473
C        6.77902044       0.98017873       2.84378913       44      -1.12306706      -0.45028917       0.26639743      -0.51441097       0.02888159      -1.28142667
C       -5.86817693       1.36776553       7.79427941       45      -0.98979999      -0.05587593      -0.83441691       2.87885189       1.13958073      -0.55467671
C       -1.97699417       1.28319951       9.85895604       46       0.40697092      -0.18668010       0.33791242       1.72742200       0.51335531      -1.56752849
C        3.19008758       2.61285367       0.97606093       47       0.25747278       0.90120823      -0.18333198       1.07156944       1.22871745       1.82996249
O       -0.85758716       2.66103181       4.11713041       48       0.61684398      -0.37118506       1.25663907      -0.17585085       0.40347448       1.06925416
O        1.08909383      -0.23997541       6.12862848       49      -0.39618495      -0.37804466      -0.11483770       0.12260088      -0.37597767      -0.82797229
O       -1.16050467      -0.72093725       5.97406340       50      -0.34983802      -1.05740184      -0.27246603      -0.47367075      -0.41498432      -0.96765548
O        1.00795484       1.19208943       4.24044431       51      -0.03056933       0.15482431      -1.24559075      -1.03327763      -0.52625453       0.63128781
O       -3.10184419       4.20162635       0.97719063       52      -0.29226591       0.28802559      -0.94690466      -0.31202179       1.32850838      -0.04798163
O        4.30825691       0.33413977       9.75623659       53       0.02704162      -1.15722880      -0.33727264      -0.25940114       0.04012856       0.50476086
O       -4.24389663       0.74756650       9.49746239       54       0.41595446      -0.82784546       0.02625894       0.13964003       0.06730121      -0.42571306
O        5.02961364       1.21054934       1.07684132       55       0.87862674       0.61974685       1.29120759      -0.01922521      -0.82935345       0.05840556
