56
Lattice="10.7619164 0.0 0.0 -9.665296305262016 4.732958053065482 0.0 -0.5483100463354086 -2.3664790220718444 10.484177494289693" Properties=species:S:1:pos:R:3:spacegroup_kinds:I:1:momenta:R:3:forces:R:3 spacegroup="P 1" unit_cell=conventional occupancy="_JSON {\"0\": {\"H\": 1}, \"1\": {\"H\": 1}, \"2\": {\"H\": 1}, \"3\": {\"H\": 1}, \"4\": {\"H\": 1}, \"5\": {\"H\": 1}, \"6\": {\"H\": 1}, \"7\": {\"H\": 1}, \"8\": {\"H\": 1}, \"9\": {\"H\": 1}, \"10\": {\"H\": 1}, \"11\": {\"H\": 1}, \"12\": {\"H\": 1}, \"13\": {\"H\": 1}, \"14\": {\"H\": 1}, \"15\": {\"H\": 1}, \"16\": {\"H\": 1}, \"17\": {\"H\": 1}, \"18\": {\"H\": 1}, \"19\": {\"H\": 1}, \"20\": {\"H\": 1}, \"21\": {\"H\": 1}, \"22\": {\"H\": 1}, \"23\": {\"H\": 1}, \"24\": {\"H\": 1}, \"25\": {\"H\": 1}, \"26\": {\"H\": 1}, \"27\": {\"H\": 1}, \"28\": {\"H\": 1}, \"29\": {\"H\": 1}, \"30\": {\"H\": 1}, \"31\": {\"H\": 1}, \"32\": {\"C\": 1}, \"33\": {\"C\": 1}, \"34\": {\"C\": 1}, \"35\": {\"C\": 1}, \"36\": {\"C\": 1}, \"37\": {\"C\": 1}, \"38\": {\"C\": 1}, \"39\": {\"C\": 1}, \"40\": {\"C\": 1}, \"41\": {\"C\": 1}, \"42\": {\"C\": 1}, \"43\": {\"C\": 1}, \"44\": {\"C\": 1}, \"45\": {\"C\": 1}, \"46\": {\"C\": 1}, \"47\": {\"C\": 1}, \"48\": {\"O\": 1}, \"49\": {\"O\": 1}, \"50\": {\"O\": 1}, \"51\": {\"O\": 1}, \"52\": {\"O\": 1}, \"53\": {\"O\": 1}, \"54\": {\"O\": 1}, \"55\": {\"O\": 1}}" energy=-315.20623779296875 free_energy=-315.20623779296875 stress="0.0015259933425113559 -0.0007349704974330962 -5.895516892451269e-07 -0.0007349704974330962 -0.0014768146211281419 6.331374891033192e-08 -5.895516892451269e-07 6.331374891033192e-08 0.0016979562351480126" pbc="T T T"
H       -0.01248427       2.27696696       1.83153339        0       0.26354636       0.05758816       0.17128558       0.07122758       0.02707764       0.05251690
H        0.46428407      -0.32702137       8.65264411        1       0.35723632       0.30052336      -0.15421514      -0.05205612       0.05564448      -0.05251589
H        7.11696904      -0.62167877       5.76820574        2       0.13651140      -0.03657588      -0.02448058       0.06071806       0.02959706      -0.06332453
H        3.54843712       0.20514534       4.71597175        3       0.04495575       0.01373704       0.24194406      -0.04159864       0.05318653       0.06330233
H        5.94175252       0.08951207       3.41055536        4       0.10004105       0.00919574       0.06893732      -0.07122650      -0.02707769      -0.05251778
H        4.91667413       0.32702137       7.07362213        5       0.03762731       0.23702154      -0.03633186       0.05205737      -0.05563793       0.05251931
H       -1.73601084       0.62167878       9.95806050        6       0.04090260      -0.15000140      -0.41043770      -0.06071897      -0.02958691       0.06332419
H        2.38083113       2.16133369       0.52611700        7       0.07639930       0.13373956      -0.11953039       0.04159802      -0.05318552      -0.06330204
H       -1.38564785       1.18011340       2.11584331        8       0.34764813      -0.24942510       0.01968671       0.00912133       0.09641422       0.00989630
H       -8.45014457       2.81694541       8.36833418        9      -0.04487542       0.24826795       0.27191556       0.03391337       0.09078139      -0.00994040
H       -2.58250803       2.70418269       6.85836100       10       0.00836639       0.05472545      -0.13232917       0.03144374       0.09145387       0.01228193
H       -6.70499477       3.65935988       3.62581649       11      -0.35280026      -0.06406840       0.05024236       0.01202258       0.09588329      -0.01239223
H       -3.44700030       1.18636563       3.12624543       12       0.17759995       0.19181929      -0.04741865      -0.00912213      -0.09641387      -0.00989517
H       -6.59610993       1.91601265       7.35793206       13      -0.06659844      -0.18039638      -0.21144164      -0.03391634      -0.09078111       0.00994123
H       -1.70183007       2.02877537       8.86790524       14      -0.29590695       0.31510437      -0.07166042      -0.03144025      -0.09144841      -0.01229331
H       -7.79294969       3.44007720       1.61627226       15      -0.10166361      -0.21365327       0.15571300      -0.01202481      -0.09588464       0.01239011
H       -0.77544238       0.72057867       4.36236141       16      -0.29135246      -0.04383699      -0.13778795      -0.05580188      -0.06497577       0.06553210
H        1.56164860       2.67260202       6.12181608       17       0.04513471      -0.09416448      -0.19034861       0.02151201      -0.08285729      -0.06550516
H       -0.46393564       1.89516633       6.16016720       18      -0.02388752       0.06229365       0.02104621       0.04679104      -0.08891346       0.03981838
H        0.70181139      -0.86845994       4.32401029       19       0.02574107      -0.11427781      -0.05287528      -0.08095951      -0.05914095      -0.03975150
H        6.70471062       1.64590036       0.87972733       20      -0.14286290      -0.07079985      -0.14118650       0.05580527       0.06498113      -0.06553393
H       -5.84598670       2.06035604       9.60445016       21      -0.29753233       0.02254640      -0.04431235      -0.02151346       0.08285338       0.06550407
H        5.84489385      -1.89516633       9.56609904       22      -0.28312851       0.06560536      -0.15494221      -0.04679289       0.08891485      -0.03981583
H       -5.53445954       3.23493897       0.91807845       23      -0.02208037       0.11416853       0.04301970       0.08095676       0.05914075       0.03974720
H        0.25131050       0.51347389       1.94957474       24       0.15959789      -0.21361364       0.07505588      -0.00851067      -0.01871661      -0.03717799
H       -0.54820374      -1.79480395       8.53460275       25      -0.12868866      -0.15316038      -0.08588331      -0.00033026      -0.02044833       0.03709354
H       -2.80766320       2.46899490       5.11315433       26      -0.07305533       0.00146869      -0.17781296      -0.04083831      -0.01125227       0.00405118
H       -6.60619587       3.34910738       5.37102316       27       0.12888264       0.07074453      -0.23064715       0.03167385      -0.02802513      -0.00411332
H       -5.08395866       1.85300514       3.29251401       28       0.22099581       0.30740365       0.21601993       0.00851477       0.01871275       0.03717742
H       -4.83275446       1.79480396       7.19166349       29      -0.04673026      -0.18471461       0.19482948       0.00034747       0.02045778      -0.03709858
H       -0.92836486       4.63044218       0.12893441       30      -0.09883902       0.19431951       0.04569436       0.04083306       0.01124385      -0.00406434
H        2.32185777       1.38385068      10.35524308       31       0.15211596       0.04921952       0.12080102      -0.03167625       0.02802749       0.00411071
C       -0.12835063       1.44534837       3.84841655       32      -0.28778073       0.91754073       0.18270710      -0.01445642       0.09213130      -0.08206642
C        0.20260826      -1.12485611       6.63576095       33       0.00096406       0.97078231      -0.67128192       0.05361501       0.07627277       0.08205807
C       -0.77226604       2.84130358       5.69336968       34      -0.96473690       0.45234422      -0.54337998      -0.06051254       0.10293053       0.03487892
C        1.39483372      -0.15433229       4.79080781       35       0.83737779      -0.34833687      -0.35976593       0.09947550       0.06571253      -0.03489113
C        6.05761888       0.92113066       1.39367220       36       0.73780001       0.71679960       1.01054651       0.01444740      -0.09213723       0.08206743
C       -5.58356646       1.12485611       9.09050530       37       0.36600935      -0.57579551       1.35161317      -0.05360198      -0.07626316      -0.08206078
C       -3.51207206       1.89165448      10.03289656       38      -0.27702103       0.36712178       0.74445208       0.06052515      -0.10293388      -0.03488915
C        4.53443453       2.52081132       0.45128094       39      -0.47025582       0.22782501       0.51146167      -0.09947118      -0.06571954       0.03490262
C       -0.32593927       1.35886302       2.34265801       40      -0.11966996      -0.73251108       0.28611321      -0.02487652      -0.04884058       0.03836593
C        0.34202778      -1.28942579       8.14151949       41       0.57030904      -0.50578053       0.01064034       0.00090615      -0.05509207      -0.03821144
C       -2.26824862       3.05565688       5.86632716       42      -0.48098077       0.96238649       0.55365818       0.02524443      -0.06073701       0.01393179
C        2.83264719      -0.61974062       4.61785033       43      -0.04860277      -0.55844948       0.33742963      -0.04932025      -0.04330936      -0.01374371
C        6.25520752       1.00761601       2.89943074       44      -0.70747446      -0.11378709      -0.42767829       0.02487169       0.04884438      -0.03836618
C       -5.72298598       1.28942580       7.58474676       45       0.19434055       0.24831833       0.14297097      -0.00092389       0.05507520       0.03821316
C       -2.01608948       1.67730118       9.85993908       46       0.09740524      -0.72425149      -0.69205550      -0.02525416       0.06073052      -0.01389902
C        3.09662106       2.98621965       0.62423841       47      -0.12331172      -0.02208015       0.38636924       0.04932695       0.04330537       0.01374357
O       -0.42625656       2.75924355       4.28180099       48       1.20625674       0.48604619      -0.44497158       0.00567049      -0.06416549       0.01081716
O        1.04798334      -0.07585512       6.20237650       49       0.42305791      -1.01659881      -0.20166176      -0.03317406      -0.05508596      -0.01086340
O       -1.17294689      -0.80803189       6.28015861       50      -0.36133290       0.99731317      -0.30860065      -0.00324905      -0.06212875      -0.01994162
O        1.24638404       1.12493657       4.20401888       51      -0.92624698      -0.21254257      -0.34164539      -0.02462073      -0.05716467       0.01989341
O       -3.30977150       4.34019353       0.96028775       52       0.26500009      -0.83301049      -0.49473951      -0.00567143       0.06416561      -0.01082153
O        4.33297486       0.07585512       9.52388974       53      -0.48283211      -0.49689578       1.25894465       0.03316782       0.05508596       0.01086746
O       -4.20801131       0.80803190       9.44610763       54       0.43498781      -0.06064940      -0.51538975       0.00324781       0.06213030       0.01994706
O        4.68288421       1.24154246       1.03806987       55       0.06343698      -0.82659266      -1.04828579       0.02462488       0.05716959      -0.01989657
56
Lattice="10.7619164 0.0 0.0 -9.665296305262016 4.732958053065482 0.0 -0.5483100463354086 -2.3664790220718444 10.484177494289693" Properties=species:S:1:pos:R:3:spacegroup_kinds:I:1:momenta:R:3:forces:R:3 spacegroup="P 1" unit_cell=conventional occupancy="_JSON {\"0\": {\"H\": 1}, \"1\": {\"H\": 1}, \"2\": {\"H\": 1}, \"3\": {\"H\": 1}, \"4\": {\"H\": 1}, \"5\": {\"H\": 1}, \"6\": {\"H\": 1}, \"7\": {\"H\": 1}, \"8\": {\"H\": 1}, \"9\": {\"H\": 1}, \"10\": {\"H\": 1}, \"11\": {\"H\": 1}, \"12\": {\"H\": 1}, \"13\": {\"H\": 1}, \"14\": {\"H\": 1}, \"15\": {\"H\": 1}, \"16\": {\"H\": 1}, \"17\": {\"H\": 1}, \"18\": {\"H\": 1}, \"19\": {\"H\": 1}, \"20\": {\"H\": 1}, \"21\": {\"H\": 1}, \"22\": {\"H\": 1}, \"23\": {\"H\": 1}, \"24\": {\"H\": 1}, \"25\": {\"H\": 1}, \"26\": {\"H\": 1}, \"27\": {\"H\": 1}, \"28\": {\"H\": 1}, \"29\": {\"H\": 1}, \"30\": {\"H\": 1}, \"31\": {\"H\": 1}, \"32\": {\"C\": 1}, \"33\": {\"C\": 1}, \"34\": {\"C\": 1}, \"35\": {\"C\": 1}, \"36\": {\"C\": 1}, \"37\": {\"C\": 1}, \"38\": {\"C\": 1}, \"39\": {\"C\": 1}, \"40\": {\"C\": 1}, \"41\": {\"C\": 1}, \"42\": {\"C\": 1}, \"43\": {\"C\": 1}, \"44\": {\"C\": 1}, \"45\": {\"C\": 1}, \"46\": {\"C\": 1}, \"47\": {\"C\": 1}, \"48\": {\"O\": 1}, \"49\": {\"O\": 1}, \"50\": {\"O\": 1}, \"51\": {\"O\": 1}, \"52\": {\"O\": 1}, \"53\": {\"O\": 1}, \"54\": {\"O\": 1}, \"55\": {\"O\": 1}}" energy=-314.163330078125 free_energy=-314.163330078125 stress="0.0017964947037398815 -0.0062950788997113705 0.004064903128892183 -0.0062950788997113705 0.0028975342866033316 0.006800155155360699 0.004064903128892183 0.006800155155360699 -0.004473614040762186" pbc="T T T"
H        0.12223864       2.21335577       1.84744822        0      -0.06388222      -0.04108021      -0.23331081      -0.34890491      -0.46717677       0.26391590
H        0.31702075      -0.21474886       8.50409126        1      -0.41596669       0.28241801       0.13417983       0.19316755      -0.82259041      -0.04442037
H        7.16689581      -0.52337017       5.79422138        2      -0.01099332       0.09115199       0.18553088      -0.25331327       0.53084290      -0.08150230
H        3.56769345       0.19128016       4.81695804        3       0.00635044       0.03106405      -0.05661320      -0.45246965      -0.59983265       0.03513708
H        5.89857395       0.12906190       3.45590353        4      -0.13662958       0.06346640       0.07412514      -0.11012630      -0.04154681      -0.10463322
H        5.01440549       0.32414383       7.14335935        5       0.11996956      -0.01313387       0.16304602      -0.17231524      -0.44180506      -0.12289548
H       -1.69404186       0.62953433       9.70230160        6      -0.06773597       0.00953669      -0.07983921      -0.29939789      -0.31745756       0.05525928
H        2.37945912       2.25462949       0.31380995        7      -0.10899685       0.12801579      -0.23887816      -0.36571217      -0.41984805      -0.02495047
H       -1.28062217       1.09681355       2.00394189        8       0.10394069       0.17626281      -0.14567626      -0.56132531      -0.12197597      -0.18949667
H       -8.36548936       3.00985769       8.44664940        9       0.01874332       0.07750842      -0.14054416       0.39231914      -0.31946686      -0.01170105
H       -2.54664929       2.78893573       6.82205308       10       0.03048607       0.25775606      -0.04488794      -0.41237298      -0.20837881       1.19028497
H       -6.74143411       3.80633209       3.57290633       11       0.32050249       0.15943880       0.02898763       0.31104037       0.03237042       0.37734795
H       -3.41360534       1.09458058       3.05616295       12       0.34318413      -0.23802466       0.07743275      -0.50854003       0.08234567       0.33156106
H       -6.59466936       1.88031612       7.31880481       13       0.01536689       0.03548298       0.08656141      -0.08189721      -0.12137385       0.20796439
H       -1.92963184       2.16013648       8.81427840       14       0.12531096      -0.02323615      -0.06973067       0.40313604      -0.12264681      -0.32056490
H       -7.86690881       3.29972357       1.71696133       15      -0.08477303      -0.03159834       0.12293855      -0.01433877      -0.41004628      -0.77137661
H       -0.90235490       0.77646750       4.33988642       16      -0.08686005      -0.05814813       0.28342574       0.40912548       0.11714692       0.19912310
H        1.57326848       2.69585857       6.02312951       17       0.00715128      -0.12380861      -0.16254805      -0.29899174      -0.23123205       0.25480568
H       -0.61632288       1.91476307       6.12879313       18      -0.08876034       0.01924316      -0.05101227       0.36619571      -0.32495493       0.18464836
H        0.76835889      -0.91704687       4.28843427       19      -0.15605120       0.01894774       0.06988658      -0.03238221       0.22899736       0.08527447
H        6.70609322       1.62092019       0.91686457       20       0.01929222      -0.19191470       0.26163565       0.76997578       0.63578367      -0.47934964
H       -5.82009078       2.01052703       9.75507010       21       0.30326574       0.03656583       0.14022305      -0.00922830      -0.03740960      -0.50983757
H        5.81093416      -1.87039270       9.61285225       22       0.20657581       0.20659844      -0.02039166       0.37428135      -0.52969074       0.33497965
H       -5.59543453       3.24736131       1.04015515       23      -0.04224117      -0.11354961       0.21265912       0.13948429      -0.29077351      -0.10894279
H        0.42784601       0.48710584       2.10176738       24       0.30049804      -0.13611023      -0.00468418      -0.59484524       0.09816521      -0.19185044
H       -0.53518865      -1.77813112       8.52127416       25       0.00655530       0.08690820       0.10595511       0.65831625      -0.06782694      -0.13440432
H       -2.96285663       2.59157647       5.13270579       26      -0.25300700       0.03340884       0.06572279       0.52106887       0.35914344       0.31286451
H       -6.55716742       3.24215844       5.23786849       27      -0.16752527      -0.02805336      -0.10766335       0.03742105      -0.88643485       0.79596168
H       -5.03685280       1.93128229       3.36334315       28      -0.15021100       0.12582481      -0.10191916       0.62859356      -0.83863658      -0.54655683
H       -4.85344603       1.77016484       7.27072604       29      -0.06649187       0.16884068       0.01181298       1.25072980       0.88673556      -0.39224485
H       -0.86175598       4.56432670       0.03964646       30       0.17846378      -0.19144323      -0.07943200      -0.39176083      -0.36752361      -0.55813432
H        2.38301366       1.54051133      10.51636406       31      -0.19060846       0.01911242       0.25222992       0.14690985      -0.16933580       0.11266217
C       -0.17581896       1.46226532       3.84974166       32      -0.18515636      -0.57459556      -0.22058202       0.27883068      -0.44003516       0.08531421
C        0.22192600      -1.12504879       6.58997345       33      -0.07512295      -0.46550181       0.08488171      -0.55275571      -0.80494785       0.23250276
C       -0.84336858       2.87265025       5.66245298       34       0.04319841       0.29158554      -0.23378193       1.13018024       0.50399101      -0.24388546
C        1.43229076      -0.18392811       4.79404745       35      -0.39846604      -0.16641840      -0.07506742      -1.39262676       0.15177524      -0.49470630
C        6.06713489       0.93900034       1.43224266       36      -0.39497109      -0.32073262      -0.80955206      -1.35844064      -1.50483692      -0.67591619
C       -5.58329450       1.10380716       9.15771830       37      -0.36193217      -0.01752088       0.07000798      -0.01275811       0.62095106      -0.17375660
C       -3.52181740       1.89477508      10.09402551       38       0.16177561      -0.52863259       0.28467031       0.13258013       0.16549717      -2.07575297
C        4.51640584       2.52102928       0.51005713       39       0.36138330      -0.43527676       0.58505049       0.14679205       0.12096047       0.07939624
C       -0.28405294       1.30051716       2.35611375       40       0.19195155      -0.55821537       0.03644868       1.44870090       0.72397000      -0.52214837
C        0.37449210      -1.27541848       8.11748206       41       0.14753597       0.49373578      -0.46888062      -1.73077822       1.54831624      -0.36517021
C       -2.30636825       3.14844780       5.85186587       42      -0.25949164       1.26103888      -0.54787132      -0.30482462      -0.37169299      -1.63762975
C        2.84200270      -0.65064889       4.64737901       43       0.56034544      -0.10141600      -0.32885534       0.85266066       1.99939561      -1.91113877
C        6.24443653       1.02088159       2.92126916       44       0.40080508      -0.06552259       0.31202188       0.30223885       0.54350787       0.34550381
C       -5.72072982       1.29321542       7.63361805       45      -0.11247024      -0.13664562       1.05760888      -1.14459550      -0.53769839       0.96596152
C       -2.05012739       1.65516314       9.77267022       46      -0.47453582       0.69520718      -0.54057391       0.62453318       1.48065019       1.00712621
C        3.08351633       3.00246313       0.64822750       47      -0.01605105       0.11556224       0.01380998       0.20967290       0.51372087       0.80871880
O       -0.35411231       2.78763684       4.26978769       48       0.22350746       0.25056295       0.25663351      -1.10039806       0.01685610       0.20638068
O        1.06167983      -0.11984225       6.16496941       49      -0.16821857      -0.55392432      -0.45958718       0.11151855       0.85498828       0.49101472
O       -1.21357942      -0.78977938       6.25156088       50      -0.33543368      -0.44277459      -0.25066833       0.73390543      -0.39541724       0.41342154
O        1.20697420       1.13024276       4.19342497       51       0.17004607       0.12777117       0.14454296       0.59316105      -1.04898453       0.70126677
O       -3.31489246       4.29054000       0.93958223       52      -0.41183555      -0.17658516       0.40053873      -0.10514026       0.93135244       2.17608881
O        4.33821577       0.06296653       9.62059751       53       0.35992281       0.45633106       0.21462754       0.43338186       0.52332288      -1.13898110
O       -4.17202258       0.83010248       9.41381798       54       0.02043445       0.24051347      -0.02777880      -0.78840172      -0.43916115       0.27765414
O        4.70668947       1.20000078       0.96656716       55       0.53785617      -0.22599715      -0.23686582      -0.20128034       0.02995278       1.29980707
56
Lattice="10.7619164 0.0 0.0 -9.665296305262016 4.732958053065482 0.0 -0.5483100463354086 -2.3664790220718444 10.484177494289693" Properties=species:S:1:pos:R:3:spacegroup_kinds:I:1:momenta:R:3:forces:R:3 spacegroup="P 1" unit_cell=conventional occupancy="_JSON {\"0\": {\"H\": 1}, \"1\": {\"H\": 1}, \"2\": {\"H\": 1}, \"3\": {\"H\": 1}, \"4\": {\"H\": 1}, \"5\": {\"H\": 1}, \"6\": {\"H\": 1}, \"7\": {\"H\": 1}, \"8\": {\"H\": 1}, \"9\": {\"H\": 1}, \"10\": {\"H\": 1}, \"11\": {\"H\": 1}, \"12\": {\"H\": 1}, \"13\": {\"H\": 1}, \"14\": {\"H\": 1}, \"15\": {\"H\": 1}, \"16\": {\"H\": 1}, \"17\": {\"H\": 1}, \"18\": {\"H\": 1}, \"19\": {\"H\": 1}, \"20\": {\"H\": 1}, \"21\": {\"H\": 1}, \"22\": {\"H\": 1}, \"23\": {\"H\": 1}, \"24\": {\"H\": 1}, \"25\": {\"H\": 1}, \"26\": {\"H\": 1}, \"27\": {\"H\": 1}, \"28\": {\"H\": 1}, \"29\": {\"H\": 1}, \"30\": {\"H\": 1}, \"31\": {\"H\": 1}, \"32\": {\"C\": 1}, \"33\": {\"C\": 1}, \"34\": {\"C\": 1}, \"35\": {\"C\": 1}, \"36\": {\"C\": 1}, \"37\": {\"C\": 1}, \"38\": {\"C\": 1}, \"39\": {\"C\": 1}, \"40\": {\"C\": 1}, \"41\": {\"C\": 1}, \"42\": {\"C\": 1}, \"43\": {\"C\": 1}, \"44\": {\"C\": 1}, \"45\": {\"C\": 1}, \"46\": {\"C\": 1}, \"47\": {\"C\": 1}, \"48\": {\"O\": 1}, \"49\": {\"O\": 1}, \"50\": {\"O\": 1}, \"51\": {\"O\": 1}, \"52\": {\"O\": 1}, \"53\": {\"O\": 1}, \"54\": {\"O\": 1}, \"55\": {\"O\": 1}}" energy=-313.85382080078125 free_energy=-313.85382080078125 stress="0.013761378824710846 -0.004879386629909277 -0.0056743016466498375 -0.004879386629909277 0.0061638131737709045 0.005476095713675022 -0.0056743016466498375 0.005476095713675022 -0.0018128779483959079" pbc="T T T"
H        0.15152032       2.21865815       1.86996610        0       0.18670812      -0.17536450       0.06887307      -0.25462943      -0.83075535       0.05804842
H        0.10920516      -0.19334259       8.62244506        1      -0.00897883       0.26460696      -0.03107045       0.20135967      -1.45994449      -1.01799405
H        7.15516444      -0.39883631       5.76710618        2       0.22383252       0.15937046      -0.34067701       0.18644525       0.19728155      -0.26340577
H        3.55287392       0.14212049       5.10648279        3      -0.16824451      -0.25377470       0.22539363      -0.53553337      -0.32390368      -0.69896370
H        5.71904806       0.28007963       3.48878619        4      -0.14175140       0.06957590       0.07981303      -0.42628980      -0.45673257       0.12704496
H        5.07217437       0.33732703       7.23278702        5      -0.02221068       0.07819945       0.03358491       0.14585060      -0.33883548      -0.34743750
H       -1.86337462       0.61454914       9.70908637        6       0.00209975      -0.06951342       0.02682898       0.35397390       0.27211794       0.03441985
H        2.40409167       2.23500129       0.27412509        7      -0.05904481      -0.08227811      -0.03197363       0.20295101       0.43273509      -0.32657501
H       -1.27779538       1.10993535       2.00836785        8      -0.09536124      -0.13044318       0.02708157      -0.83864695       0.04003254      -0.43664849
H       -8.33962614       3.21420937       8.35225612        9       0.17273884       0.29406194      -0.08361715       0.23368020       0.22765675      -0.09218046
H       -2.54133521       3.01261343       6.85842827       10       0.10491059       0.07367804       0.12018107      -0.11240909      -0.33224446       0.81576616
H       -6.39093375       3.84895170       3.60576982       11       0.14443695       0.00657623      -0.00789926      -0.26307121       0.31059489      -0.29988551
H       -3.37778201       0.94136170       3.24468014       12       0.01522319      -0.07500941       0.19342090      -1.33400726      -0.10755505      -0.76893336
H       -6.68609544       1.78694178       7.51153395       13      -0.08667874      -0.27258673      -0.01170150      -0.20096047      -0.13164583      -0.15521672
H       -1.76453238       2.05976712       8.70170600       14       0.02189833      -0.10309609       0.09738926      -0.31269524       0.19350334       0.31044084
H       -7.95445999       3.02340538       1.79564975       15      -0.04973545      -0.11226856       0.02076824       0.41189516       0.38057709      -1.18562293
H       -0.80018674       0.77039121       4.49092961       16       0.00831342      -0.06072613      -0.00660580       0.00096979       0.17438692      -0.99411476
H        1.44500773       2.50713074       6.17382269       17       0.01225025      -0.28997467      -0.01209826       0.24866460       1.14403391       0.13491336
H       -0.56090745       1.92546785       6.04306251       18       0.00912436       0.02953028      -0.02228955      -0.35387442      -0.16754207       0.13082495
H        0.67939898      -0.89355046       4.27079635       19       0.07644923      -0.05095163      -0.04691353       0.30057642      -0.10529570      -0.07734901
H        6.74714459       1.49845928       0.85340913       20      -0.11245940      -0.08927544      -0.22056974       0.51640952       1.18712199      -0.49471027
H       -5.80988205       2.10952456       9.71365889       21      -0.20491588       0.06817263      -0.10894749       0.02467466      -0.34780383      -0.22419611
H        5.87596099      -1.83571097       9.70363724       22      -0.16165004       0.07076731       0.03590460      -0.15178829      -0.88951707      -0.00086559
H       -5.50015873       3.11440192       1.13784141       23       0.11933143       0.03126418      -0.00442123      -0.11864749       0.35621238      -0.32354695
H        0.36855193       0.33657770       1.99417357       24      -0.04607098      -0.23447372      -0.15432091      -1.04204249       1.71019399       0.43702251
H       -0.32413886      -2.00709537       8.53026260       25       0.20339019      -0.17844337      -0.18322129       0.05246307       0.67888921      -0.27905285
H       -3.08714253       2.74677620       5.19721871       26      -0.01915540       0.07455415      -0.09249942       0.58998281       0.03474209       0.12558231
H       -6.69673470       3.25872582       5.21696381       27      -0.09696501      -0.06689025      -0.04755525       0.17544158      -1.07494092       0.50442910
H       -4.83143349       2.04721347       3.16449853       28       0.33766952       0.12941314       0.00705004       0.39477798      -1.34767151      -0.01897252
H       -4.93754015       1.99042852       7.37634370       29       0.05869048       0.23203800       0.01089278      -0.29873911      -0.47476602      -0.05642287
H       -0.81005393       4.51876363       0.00822823       30      -0.20155746       0.23295220      -0.03457198      -0.26691604      -0.02006707      -0.48482367
H        2.48120421       1.62674272      10.66760478       31       0.30393422      -0.01816142       0.05312276      -0.25146610      -0.60053033       0.38425520
C       -0.17497677       1.41202889       3.81608586       32       0.11041251      -0.26316000      -0.10980220       0.95673013       0.41550332       1.33581209
C        0.16861400      -1.18805867       6.60335740       33      -0.76776877       0.02200155       0.67403993      -0.22194447       0.09041096      -0.69299948
C       -0.81165543       2.89924228       5.59186423       34      -0.05282383       0.32733008      -0.63230756      -1.19237077      -0.34072223       0.60170323
C        1.38527143      -0.18167029       4.74198785       35       0.10269919       0.21879209      -0.68694714       0.81693935      -0.55123615      -0.59415710
C        6.06620574       0.86818198       1.37965232       36       0.53230855      -0.54626107       0.08532754      -0.00823057      -0.53997093       1.85033917
C       -5.59710015       1.15461053       9.17270548       37       0.05871166       1.06856361       0.55336455       0.70454299       0.84736675       1.79725468
C       -3.48648165       1.86752583      10.06803995       38       0.30032614       0.37939419      -0.58623109      -0.95997697       1.52576637      -0.53066069