56
Lattice="10.7619164 0.0 0.0 -9.665296305262016 4.732958053065482 0.0 -0.5483100463354086 -2.3664790220718444 10.484177494289693" Properties=species:S:1:pos:R:3:spacegroup_kinds:I:1:forces:R:3 spacegroup="P 1" unit_cell=conventional occupancy="_JSON {\"0\": {\"H\": 1}, \"1\": {\"H\": 1}, \"2\": {\"H\": 1}, \"3\": {\"H\": 1}, \"4\": {\"H\": 1}, \"5\": {\"H\": 1}, \"6\": {\"H\": 1}, \"7\": {\"H\": 1}, \"8\": {\"H\": 1}, \"9\": {\"H\": 1}, \"10\": {\"H\": 1}, \"11\": {\"H\": 1}, \"12\": {\"H\": 1}, \"13\": {\"H\": 1}, \"14\": {\"H\": 1}, \"15\": {\"H\": 1}, \"16\": {\"H\": 1}, \"17\": {\"H\": 1}, \"18\": {\"H\": 1}, \"19\": {\"H\": 1}, \"20\": {\"H\": 1}, \"21\": {\"H\": 1}, \"22\": {\"H\": 1}, \"23\": {\"H\": 1}, \"24\": {\"H\": 1}, \"25\": {\"H\": 1}, \"26\": {\"H\": 1}, \"27\": {\"H\": 1}, \"28\": {\"H\": 1}, \"29\": {\"H\": 1}, \"30\": {\"H\": 1}, \"31\": {\"H\": 1}, \"32\": {\"C\": 1}, \"33\": {\"C\": 1}, \"34\": {\"C\": 1}, \"35\": {\"C\": 1}, \"36\": {\"C\": 1}, \"37\": {\"C\": 1}, \"38\": {\"C\": 1}, \"39\": {\"C\": 1}, \"40\": {\"C\": 1}, \"41\": {\"C\": 1}, \"42\": {\"C\": 1}, \"43\": {\"C\": 1}, \"44\": {\"C\": 1}, \"45\": {\"C\": 1}, \"46\": {\"C\": 1}, \"47\": {\"C\": 1}, \"48\": {\"O\": 1}, \"49\": {\"O\": 1}, \"50\": {\"O\": 1}, \"51\": {\"O\": 1}, \"52\": {\"O\": 1}, \"53\": {\"O\": 1}, \"54\": {\"O\": 1}, \"55\": {\"O\": 1}}" energy=-315.20623779296875 free_energy=-315.20623779296875 stress="0.0015259933425113559 -0.0007349704974330962 -5.895516892451269e-07 -0.0007349704974330962 -0.0014768146211281419 6.331374891033192e-08 -5.895516892451269e-07 6.331374891033192e-08 0.0016979562351480126" pbc="T T T"
H       -0.01248427       2.27696696       1.83153339        0       0.07122758       0.02707764       0.05251690
H        0.46428407      -0.32702137       8.65264411        1      -0.05205612       0.05564448      -0.05251589
H        7.11696904      -0.62167877       5.76820574        2       0.06071806       0.02959706      -0.06332453
H        3.54843712       0.20514534       4.71597175        3      -0.04159864       0.05318653       0.06330233
H        5.94175252       0.08951207       3.41055536        4      -0.07122650      -0.02707769      -0.05251778
H        4.91667413       0.32702137       7.07362213        5       0.05205737      -0.05563793       0.05251931
H       -1.73601084       0.62167878       9.95806050        6      -0.06071897      -0.02958691       0.06332419
H        2.38083113       2.16133369       0.52611700        7       0.04159802      -0.05318552      -0.06330204
H       -1.38564785       1.18011340       2.11584331        8       0.00912133       0.09641422       0.00989630
H       -8.45014457       2.81694541       8.36833418        9       0.03391337       0.09078139      -0.00994040
H       -2.58250803       2.70418269       6.85836100       10       0.03144374       0.09145387       0.01228193
H       -6.70499477       3.65935988       3.62581649       11       0.01202258       0.09588329      -0.01239223
H       -3.44700030       1.18636563       3.12624543       12      -0.00912213      -0.09641387      -0.00989517
H       -6.59610993       1.91601265       7.35793206       13      -0.03391634      -0.09078111       0.00994123
H       -1.70183007       2.02877537       8.86790524       14      -0.03144025      -0.09144841      -0.01229331
H       -7.79294969       3.44007720       1.61627226       15      -0.01202481      -0.09588464       0.01239011
H       -0.77544238       0.72057867       4.36236141       16      -0.05580188      -0.06497577       0.06553210
H        1.56164860       2.67260202       6.12181608       17       0.02151201      -0.08285729      -0.06550516
H       -0.46393564       1.89516633       6.16016720       18       0.04679104      -0.08891346       0.03981838
H        0.70181139      -0.86845994       4.32401029       19      -0.08095951      -0.05914095      -0.03975150
H        6.70471062       1.64590036       0.87972733       20       0.05580527       0.06498113      -0.06553393
H       -5.84598670       2.06035604       9.60445016       21      -0.02151346       0.08285338       0.06550407
H        5.84489385      -1.89516633       9.56609904       22      -0.04679289       0.08891485      -0.03981583
H       -5.53445954       3.23493897       0.91807845       23       0.08095676       0.05914075       0.03974720
H        0.25131050       0.51347389       1.94957474       24      -0.00851067      -0.01871661      -0.03717799
H       -0.54820374      -1.79480395       8.53460275       25      -0.00033026      -0.02044833       0.03709354
H       -2.80766320       2.46899490       5.11315433       26      -0.04083831      -0.01125227       0.00405118
H       -6.60619587       3.34910738       5.37102316       27       0.03167385      -0.02802513      -0.00411332
H       -5.08395866       1.85300514       3.29251401       28       0.00851477       0.01871275       0.03717742
H       -4.83275446       1.79480396       7.19166349       29       0.00034747       0.02045778      -0.03709858
H       -0.92836486       4.63044218       0.12893441       30       0.04083306       0.01124385      -0.00406434
H        2.32185777       1.38385068      10.35524308       31      -0.03167625       0.02802749       0.00411071
C       -0.12835063       1.44534837       3.84841655       32      -0.01445642       0.09213130      -0.08206642
C        0.20260826      -1.12485611       6.63576095       33       0.05361501       0.07627277       0.08205807
C       -0.77226604       2.84130358       5.69336968       34      -0.06051254       0.10293053       0.03487892
C        1.39483372      -0.15433229       4.79080781       35       0.09947550       0.06571253      -0.03489113
C        6.05761888       0.92113066       1.39367220       36       0.01444740      -0.09213723       0.08206743
C       -5.58356646       1.12485611       9.09050530       37      -0.05360198      -0.07626316      -0.08206078
C       -3.51207206       1.89165448      10.03289656       38       0.06052515      -0.10293388      -0.03488915
C        4.53443453       2.52081132       0.45128094       39      -0.09947118      -0.06571954       0.03490262
C       -0.32593927       1.35886302       2.34265801       40      -0.02487652      -0.04884058       0.03836593
C        0.34202778      -1.28942579       8.14151949       41       0.00090615      -0.05509207      -0.03821144
C       -2.26824862       3.05565688       5.86632716       42       0.02524443      -0.06073701       0.01393179
C        2.83264719      -0.61974062       4.61785033       43      -0.04932025      -0.04330936      -0.01374371
C        6.25520752       1.00761601       2.89943074       44       0.02487169       0.04884438      -0.03836618
C       -5.72298598       1.28942580       7.58474676       45      -0.00092389       0.05507520       0.03821316
C       -2.01608948       1.67730118       9.85993908       46      -0.02525416       0.06073052      -0.01389902
C        3.09662106       2.98621965       0.62423841       47       0.04932695       0.04330537       0.01374357
O       -0.42625656       2.75924355       4.28180099       48       0.00567049      -0.06416549       0.01081716
O        1.04798334      -0.07585512       6.20237650       49      -0.03317406      -0.05508596      -0.01086340
O       -1.17294689      -0.80803189       6.28015861       50      -0.00324905      -0.06212875      -0.01994162
O        1.24638404       1.12493657       4.20401888       51      -0.02462073      -0.05716467       0.01989341
O       -3.30977150       4.34019353       0.96028775       52      -0.00567143       0.06416561      -0.01082153
O        4.33297486       0.07585512       9.52388974       53       0.03316782       0.05508596       0.01086746
O       -4.20801131       0.80803190       9.44610763       54       0.00324781       0.06213030       0.01994706
O        4.68288421       1.24154246       1.03806987       55       0.02462488       0.05716959      -0.01989657
