13
Lattice="7.26870274 0.0 0.0 3.634351370000001 6.294881225397555 0.0 3.634351370000001 2.0982937417991856 5.934870934989993" Properties=species:S:1:pos:R:3:spacegroup_kinds:I:1:forces:R:3 spacegroup="P 1" unit_cell=conventional occupancy="_JSON {\"0\": {\"Li\": 1}, \"1\": {\"Li\": 1}, \"2\": {\"Li\": 1}, \"3\": {\"Li\": 1}, \"4\": {\"Li\": 1}, \"5\": {\"Li\": 1}, \"6\": {\"P\": 1}, \"7\": {\"S\": 1}, \"8\": {\"S\": 1}, \"9\": {\"S\": 1}, \"10\": {\"S\": 1}, \"11\": {\"S\": 1}, \"12\": {\"Cl\": 1}}" energy=-53.3634147644043 free_energy=-53.3634147644043 stress="-0.0007942027295939624 -2.3430015971825924e-07 -1.6695672400146577e-07 -2.3430015971825924e-07 -0.0007939483039081097 -1.0548314577363271e-07 -1.6695672400146577e-07 -1.0548314577363271e-07 -0.0007938924245536327" pbc="T T T"
Li       9.25387995       7.24703237       3.10460814        0       0.00422589      -0.00243453       0.00344803
Li      12.55222827       5.34273008       5.79769826        1      -0.00421140       0.00243308      -0.00344154
Li       9.25387995       5.34273008       5.79769826        2       0.00422480       0.00243925      -0.00344691
Li      12.55222827       7.24703237       3.10460814        3      -0.00421210      -0.00243105       0.00344078
Li      10.90305411       4.39057894       3.10460814        4       0.00000272       0.00487638       0.00344795
Li      10.90305411       8.19918351       5.79769826        5       0.00000228      -0.00486306      -0.00344120
P        7.26870274       4.19658748       2.96743547        6       0.00008500       0.00004661       0.00003587
S        7.26870637       6.13578650       2.28182731        7      -0.00001865      -0.01091033       0.00384774
S        8.94810016       3.22699113       2.28182731        8      -0.00945804       0.00544024       0.00384672
S        5.58931258       3.22699113       2.28182731        9       0.00937799       0.00541316       0.00383021
S        7.26870637       4.19658958       5.02426588       10      -0.00001893      -0.00000951      -0.01156864
S       10.90305411       6.29488123       4.45115320       11      -0.00000109      -0.00000120       0.00000007
Cl       0.00000000       0.00000000       0.00000000       12       0.00000153       0.00000105       0.00000088
