13
Lattice="7.26870274 0.0 0.0 3.634351370000001 6.294881225397555 0.0 3.634351370000001 2.0982937417991856 5.934870934989993" Properties=species:S:1:pos:R:3:spacegroup_kinds:I:1:forces:R:3 spacegroup="P 1" unit_cell=conventional occupancy="_JSON {\"0\": {\"Li\": 1}, \"1\": {\"Li\": 1}, \"2\": {\"Li\": 1}, \"3\": {\"Li\": 1}, \"4\": {\"Li\": 1}, \"5\": {\"Li\": 1}, \"6\": {\"P\": 1}, \"7\": {\"S\": 1}, \"8\": {\"S\": 1}, \"9\": {\"S\": 1}, \"10\": {\"S\": 1}, \"11\": {\"S\": 1}, \"12\": {\"Cl\": 1}}" energy=-53.3634147644043 free_energy=-53.3634147644043 stress="-0.0007941961521282792 -2.31580131071496e-07 -1.6827259230467462e-07 -2.31580131071496e-07 -0.0007939533097669482 -1.3274895138692955e-07 -1.6827259230467462e-07 -1.3274895138692955e-07 -0.0007939221104606986" pbc="T T T"
Li       9.25387995       7.24703237       3.10460814        0       0.00422563      -0.00243450       0.00344825
Li      12.55222827       5.34273008       5.79769826        1      -0.00421137       0.00243321      -0.00344159
Li       9.25387995       5.34273008       5.79769826        2       0.00422499       0.00243876      -0.00344686
Li      12.55222827       7.24703237       3.10460814        3      -0.00421222      -0.00243080       0.00344092
Li      10.90305411       4.39057894       3.10460814        4       0.00000251       0.00487644       0.00344851
Li      10.90305411       8.19918351       5.79769826        5       0.00000194      -0.00486323      -0.00344133
P        7.26870274       4.19658748       2.96743547        6       0.00008588       0.00004556       0.00003603
S        7.26870637       6.13578650       2.28182731        7      -0.00001809      -0.01090957       0.00384763
S        8.94810016       3.22699113       2.28182731        8      -0.00945786       0.00544025       0.00384710
S        5.58931258       3.22699113       2.28182731        9       0.00937784       0.00541327       0.00383046
S        7.26870637       4.19658958       5.02426588       10      -0.00001912      -0.00000984      -0.01156975
S       10.90305411       6.29488123       4.45115320       11      -0.00000105      -0.00000088      -0.00000025
Cl       0.00000000       0.00000000       0.00000000       12       0.00000090       0.00000140       0.00000092
