13
Lattice="7.26870274 0.0 0.0 3.634351370000001 6.294881225397555 0.0 3.634351370000001 2.0982937417991856 5.934870934989993" Properties=species:S:1:pos:R:3:spacegroup_kinds:I:1:forces:R:3 spacegroup="P 1" unit_cell=conventional occupancy="_JSON {\"0\": {\"Li\": 1}, \"1\": {\"Li\": 1}, \"2\": {\"Li\": 1}, \"3\": {\"Li\": 1}, \"4\": {\"Li\": 1}, \"5\": {\"Li\": 1}, \"6\": {\"P\": 1}, \"7\": {\"S\": 1}, \"8\": {\"S\": 1}, \"9\": {\"S\": 1}, \"10\": {\"S\": 1}, \"11\": {\"S\": 1}, \"12\": {\"Cl\": 1}}" energy=-53.3634147644043 free_energy=-53.3634147644043 stress="-0.0007941981311887503 -2.4000200937734917e-07 -1.5343249515353818e-07 -2.4000200937734917e-07 -0.0007939324132166803 -9.157525937553146e-08 -1.5343249515353818e-07 -9.157525937553146e-08 -0.0007938884082250297" pbc="T T T"
Li       9.25387995       7.24703237       3.10460814        0       0.00422587      -0.00243468       0.00344817
Li      12.55222827       5.34273008       5.79769826        1      -0.00421128       0.00243337      -0.00344150
Li       9.25387995       5.34273008       5.79769826        2       0.00422520       0.00243896      -0.00344720
Li      12.55222827       7.24703237       3.10460814        3      -0.00421271      -0.00243130       0.00344177
Li      10.90305411       4.39057894       3.10460814        4       0.00000247       0.00487611       0.00344817
Li      10.90305411       8.19918351       5.79769826        5       0.00000169      -0.00486412      -0.00344191
P        7.26870274       4.19658748       2.96743547        6       0.00008590       0.00004608       0.00003580
S        7.26870637       6.13578650       2.28182731        7      -0.00001801      -0.01090929       0.00384758
S        8.94810016       3.22699113       2.28182731        8      -0.00945830       0.00544054       0.00384741
S        5.58931258       3.22699113       2.28182731        9       0.00937816       0.00541330       0.00383017
S        7.26870637       4.19658958       5.02426588       10      -0.00001838      -0.00000932      -0.01156920
S       10.90305411       6.29488123       4.45115320       11      -0.00000192      -0.00000063      -0.00000075
Cl       0.00000000       0.00000000       0.00000000       12       0.00000134       0.00000093       0.00000155
