32
Lattice="6.17176593 0.0 0.0 0.0 8.01859859 0.0 0.0 0.0 13.03281824" Properties=species:S:1:pos:R:3:spacegroup_kinds:I:1:momenta:R:3:forces:R:3 spacegroup="P 1" unit_cell=conventional occupancy="_JSON {\"0\": {\"Li\": 1}, \"1\": {\"Li\": 1}, \"2\": {\"Li\": 1}, \"3\": {\"Li\": 1}, \"4\": {\"Li\": 1}, \"5\": {\"Li\": 1}, \"6\": {\"Li\": 1}, \"7\": {\"Li\": 1}, \"8\": {\"Li\": 1}, \"9\": {\"Li\": 1}, \"10\": {\"Li\": 1}, \"11\": {\"Li\": 1}, \"12\": {\"P\": 1}, \"13\": {\"P\": 1}, \"14\": {\"P\": 1}, \"15\": {\"P\": 1}, \"16\": {\"S\": 1}, \"17\": {\"S\": 1}, \"18\": {\"S\": 1}, \"19\": {\"S\": 1}, \"20\": {\"S\": 1}, \"21\": {\"S\": 1}, \"22\": {\"S\": 1}, \"23\": {\"S\": 1}, \"24\": {\"S\": 1}, \"25\": {\"S\": 1}, \"26\": {\"S\": 1}, \"27\": {\"S\": 1}, \"28\": {\"S\": 1}, \"29\": {\"S\": 1}, \"30\": {\"S\": 1}, \"31\": {\"S\": 1}}" energy=-140.11427307128906 free_energy=-140.11427307128906 stress="0.0019335674587637186 0.001481636893004179 -0.0006201936630532146 0.001481636893004179 -0.0007898686453700066 0.0014231509994715452 -0.0006201936630532146 0.0014231509994715452 -0.001845488091930747" pbc="T T T"
Li       2.44879296       0.21722033       4.40506048        0       0.08725498      -0.05072516       0.11567167      -0.14575014       0.13245681      -0.06588201
Li       3.75731385       7.75647827       8.64997080        1      -0.00530963       0.11220394      -0.26100547      -0.03327971      -0.09680016       0.04614647
Li       5.36356478       7.83570537       2.19494948        2      -0.28492093       0.14838934      -0.11489916       0.18777972      -0.14887413      -0.02528699
Li       0.79685993       0.27562584      10.77158794        3       0.14108125      -0.06839037      -0.13548236      -0.15241896      -0.00426352       0.16020662
Li       3.71673337       4.28617963       8.72830108        4       0.12569634       0.13086349       0.01999400       0.23085193       0.05440393      -0.03650316
Li       2.34774785       3.80139683       4.38950542        5       0.07421091       0.13413807       0.16840573       0.00256382      -0.19811404      -0.17535585
Li       0.73558243       3.78235500      10.83733086        6       0.00872271      -0.01203025      -0.19760973      -0.08811472      -0.12329379       0.07193069
Li       5.58548368       4.34270554       2.13191151        7       0.23104963       0.13118700       0.01023559      -0.09623696      -0.07389040       0.09745083
Li       3.07525599      -0.08120756      -0.03514256        8      -0.00908762      -0.24517974      -0.13306981      -0.10707381       0.08405341       0.07921264
Li      -0.04829440      -0.05521114       6.48398304        9      -0.12324944       0.03555342       0.04438598       0.12987244       0.08245979       0.07370121
Li       3.08200236       4.06462349      -0.06148620       10       0.14710388      -0.07581966      -0.16199280      -0.13297345      -0.03897296       0.24675868
Li      -0.01023283       3.94249348       6.48934747       11      -0.00415904       0.05444782       0.11988340      -0.01623865       0.03783058       0.11702332
P        0.92146569       2.00387288       1.15716885       12      -0.31551040      -0.13405483      -0.58102034       0.23770213       0.65761179       0.31883705
P        5.21170345       5.99201787      11.83526557       13      -0.95167304      -0.21124405      -0.41937915       0.35376328       0.21985847       0.15373412
P        4.02900719       5.96146455       5.33464626       14       0.11665331      -0.17803899       0.39889722       0.01199498       0.28010982       0.12854101
P        2.16356790       2.05029079       7.72572729       15       0.58326575       0.27779004       0.40085242      -0.54206443      -0.29765025      -0.28527212
S        5.04672497       2.00879952       1.36568989       16      -0.35348834       0.39715554       0.83320013       0.35026735       0.26000336      -0.20132591
S        1.10761748       6.00708979      11.65023218       17       0.19642216      -0.40632503      -0.49757914      -0.42099676       0.04901649       0.09912059
S        1.98615537       5.99294161       5.26287463       18      -0.53905054      -0.28941325       0.92079630       0.05443835       0.05309857      -0.08903868
S        4.19914364       1.97981111       7.83078044       19       0.10935220      -0.70863842       0.03921579      -0.21239416       0.21183544       0.07989900
S        1.72922606       2.04317036      12.25819868       20       0.53429165      -0.13338300      -0.07364507      -0.20668992      -0.15923323      -0.02901012
S        4.50900256       6.02326987       0.79614652       21       0.63139091      -0.19763746      -0.11437708       0.02211155      -0.01253728      -0.41465205
S        4.76817358       5.98971720       7.28005912       22      -0.11381456       0.17014292      -0.59910531       0.07127823      -0.02396187       0.10560713
S        1.36893826       1.98751105       5.75536387       23      -1.04382795      -0.12548368       0.26164448       0.22640781       0.16810510       0.30939066
S        1.68659102       0.32880036       2.02787230       24       0.35696742       0.55747696       0.37246411      -0.03769402      -0.24208933       0.00697543
S        4.47851001       7.72610436      11.00100658       25       0.29352041      -0.05252561      -0.34504915       0.11470526      -0.12857899       0.00932831
S        4.77151186       7.70643850       4.49611241       26       0.09634547      -0.10636188      -0.05703409      -0.05798565      -0.16634746       0.07875854
S        1.35849917       0.27524187       8.48865446       27      -0.45663877       0.18047122      -0.74722610       0.29244119       0.44128463      -0.05905094
S        4.46274270       4.24799511      11.03999831       28      -0.10197812      -0.09554818       0.68798676       0.20405799       0.13511464      -0.07158098
S        1.72555702       3.77994404       1.98264153       29       0.60374061       0.12680613       0.02916650      -0.26463443      -0.53056264      -0.16010647
S        1.41634351       3.81381228       8.55748101       30      -0.06340882       1.25777879       0.18178925       0.10980252      -0.55898011      -0.32613996
S        4.77813680       4.25075340       4.52022495       31       0.02904756      -0.62360517      -0.16611454      -0.08549301      -0.06309274      -0.24341723
