32
Lattice="6.17176593 0.0 0.0 0.0 8.01859859 0.0 0.0 0.0 13.03281824" Properties=species:S:1:pos:R:3:spacegroup_kinds:I:1:momenta:R:3:forces:R:3 spacegroup="P 1" unit_cell=conventional occupancy="_JSON {\"0\": {\"Li\": 1}, \"1\": {\"Li\": 1}, \"2\": {\"Li\": 1}, \"3\": {\"Li\": 1}, \"4\": {\"Li\": 1}, \"5\": {\"Li\": 1}, \"6\": {\"Li\": 1}, \"7\": {\"Li\": 1}, \"8\": {\"Li\": 1}, \"9\": {\"Li\": 1}, \"10\": {\"Li\": 1}, \"11\": {\"Li\": 1}, \"12\": {\"P\": 1}, \"13\": {\"P\": 1}, \"14\": {\"P\": 1}, \"15\": {\"P\": 1}, \"16\": {\"S\": 1}, \"17\": {\"S\": 1}, \"18\": {\"S\": 1}, \"19\": {\"S\": 1}, \"20\": {\"S\": 1}, \"21\": {\"S\": 1}, \"22\": {\"S\": 1}, \"23\": {\"S\": 1}, \"24\": {\"S\": 1}, \"25\": {\"S\": 1}, \"26\": {\"S\": 1}, \"27\": {\"S\": 1}, \"28\": {\"S\": 1}, \"29\": {\"S\": 1}, \"30\": {\"S\": 1}, \"31\": {\"S\": 1}}" energy=-140.31869506835938 free_energy=-140.31869506835938 stress="-0.007170631550252438 -4.832801270282516e-09 7.678957025802902e-09 -4.832801270282516e-09 -0.008259376510977745 9.185461280480922e-09 7.678957025802902e-09 9.185461280480922e-09 -0.005266301799565554" pbc="T T T"
Li       2.40329652       0.26860172       4.33400832        0       0.00000000       0.00000000       0.00000000      -0.02603523       0.00549116      -0.00432117
Li       3.76846941       7.74999687       8.69880992        1       0.00000000       0.00000000       0.00000000       0.02603718      -0.00549196       0.00432289
Li       5.48917948       7.74999687       2.18240080        2       0.00000000       0.00000000       0.00000000      -0.02603576      -0.00549114       0.00432296
Li       0.68258645       0.26860172      10.85041744        3       0.00000000       0.00000000       0.00000000       0.02603516       0.00549172      -0.00431902
Li       3.76846941       4.27790102       8.69880992        4       0.00000000       0.00000000       0.00000000       0.02603690       0.00549197       0.00432218
Li       2.40329652       3.74069757       4.33400832        5       0.00000000       0.00000000       0.00000000      -0.02603617      -0.00549152      -0.00432130
Li       0.68258645       3.74069757      10.85041744        6       0.00000000       0.00000000       0.00000000       0.02603629      -0.00549215      -0.00431985
Li       5.48917948       4.27790102       2.18240080        7       0.00000000       0.00000000       0.00000000      -0.02603626       0.00549155       0.00432267
Li       3.08588297       0.00000000       0.00000000        8       0.00000000       0.00000000       0.00000000      -0.00000014      -0.00000069      -0.00000067
Li       0.00000000       0.00000000       6.51640912        9       0.00000000       0.00000000       0.00000000      -0.00000018      -0.00000049      -0.00000020
Li       3.08588297       4.00929929       0.00000000       10       0.00000000       0.00000000       0.00000000      -0.00000028       0.00000143      -0.00000056
Li       0.00000000       4.00929929       6.51640912       11       0.00000000       0.00000000       0.00000000       0.00000001       0.00000042      -0.00000016
P        0.94051010       2.00464965       1.16601784       12       0.00000000       0.00000000       0.00000000      -0.02067181      -0.00000110       0.02376053
P        5.23125583       6.01394894      11.86680040       13       0.00000000       0.00000000       0.00000000       0.02066645      -0.00000004      -0.02376005
P        4.02639307       6.01394894       5.35039128       14       0.00000000       0.00000000       0.00000000      -0.02066671       0.00000124      -0.02375638
P        2.14537286       2.00464965       7.68242696       15       0.00000000       0.00000000       0.00000000       0.02066900      -0.00000215       0.02375678
S        5.08970823       2.00464965       1.30575389       16       0.00000000       0.00000000       0.00000000      -0.25450629       0.00000099       0.01679035
S        1.08205770       6.01394894      11.72706435       17       0.00000000       0.00000000       0.00000000       0.25450718       0.00000069      -0.01679163
S        2.00382526       6.01394894       5.21065523       18       0.00000000       0.00000000       0.00000000      -0.25450620       0.00000079      -0.01679098
S        4.16794067       2.00464965       7.82216301       19       0.00000000       0.00000000       0.00000000       0.25450090       0.00000042       0.01678935
S        1.68132889       2.00464965      12.25955363       20       0.00000000       0.00000000       0.00000000       0.10912207      -0.00000000      -0.16719505
S        4.49043704       6.01394894       0.77326461       21       0.00000000       0.00000000       0.00000000      -0.10912049       0.00000032       0.16718149
S        4.76721186       6.01394894       7.28967373       22       0.00000000       0.00000000       0.00000000       0.10912055       0.00000001       0.16717991
S        1.40455407       2.00464965       5.74314451       23       0.00000000       0.00000000       0.00000000      -0.10911953      -0.00000018      -0.16718166
S        1.67233151       0.29287049       2.00524453       24       0.00000000       0.00000000       0.00000000       0.13957854      -0.21272647       0.08709914
S        4.49943442       7.72572810      11.02757371       25       0.00000000       0.00000000       0.00000000      -0.13957562       0.21272469      -0.08709267
S        4.75821447       7.72572810       4.51116459       26       0.00000000       0.00000000       0.00000000       0.13957512       0.21272522      -0.08709250
S        1.41355146       0.29287049       8.52165365       27       0.00000000       0.00000000       0.00000000      -0.13957617      -0.21272020       0.08709145
S        4.49943442       4.30216979      11.02757371       28       0.00000000       0.00000000       0.00000000      -0.13957752      -0.21272570      -0.08709352
S        1.67233151       3.71642880       2.00524453       29       0.00000000       0.00000000       0.00000000       0.13957831       0.21272607       0.08709934
S        1.41355146       3.71642880       8.52165365       30       0.00000000       0.00000000       0.00000000      -0.13957627       0.21272056       0.08709125
S        4.75821447       4.30216979       4.51116459       31       0.00000000       0.00000000       0.00000000       0.13957682      -0.21272555      -0.08709301
32
Lattice="6.17176593 0.0 0.0 0.0 8.01859859 0.0 0.0 0.0 13.03281824" Properties=species:S:1:pos:R:3:spacegroup_kinds:I:1:momenta:R:3:forces:R:3 spacegroup="P 1" unit_cell=conventional occupancy="_JSON {\"0\": {\"Li\": 1}, \"1\": {\"Li\": 1}, \"2\": {\"Li\": 1}, \"3\": {\"Li\": 1}, \"4\": {\"Li\": 1}, \"5\": {\"Li\": 1}, \"6\": {\"Li\": 1}, \"7\": {\"Li\": 1}, \"8\": {\"Li\": 1}, \"9\": {\"Li\": 1}, \"10\": {\"Li\": 1}, \"11\": {\"Li\": 1}, \"12\": {\"P\": 1}, \"13\": {\"P\": 1}, \"14\": {\"P\": 1}, \"15\": {\"P\": 1}, \"16\": {\"S\": 1}, \"17\": {\"S\": 1}, \"18\": {\"S\": 1}, \"19\": {\"S\": 1}, \"20\": {\"S\": 1}, \"21\": {\"S\": 1}, \"22\": {\"S\": 1}, \"23\": {\"S\": 1}, \"24\": {\"S\": 1}, \"25\": {\"S\": 1}, \"26\": {\"S\": 1}, \"27\": {\"S\": 1}, \"28\": {\"S\": 1}, \"29\": {\"S\": 1}, \"30\": {\"S\": 1}, \"31\": {\"S\": 1}}" energy=-140.32008361816406 free_energy=-140.32008361816406 stress="-0.007101103197783232 -1.6207326552830637e-05 3.0376451832125895e-05 -1.6207326552830637e-05 -0.008155561983585358 7.81677408667747e-06 3.0376451832125895e-05 7.81677408667747e-06 -0.005161124747246504" pbc="T T T"
Li       2.40378514       0.26726446       4.33400280        0       0.02574180      -0.06141520      -0.04074542      -0.02662500       0.00763974      -0.00423972
Li       3.76808825       7.75104541       8.69830841        1      -0.01364618       0.09438806      -0.02029012       0.02719699      -0.00913598       0.00384780
Li       5.49041204       7.74833618       2.18210657        2       0.07077323      -0.04992604      -0.01204566      -0.02637052      -0.00382834       0.00487561
Li       0.68538342       0.26881281      10.84918134        3       0.11701640       0.04350215      -0.08239152       0.01938711       0.00476981      -0.00165113
Li       3.76786802       4.27686281       8.69810905        4      -0.01561532      -0.07511975      -0.02834557       0.02936598       0.00906569       0.00644154
Li       2.40057561       3.73828919       4.33660714        5      -0.14916531      -0.09959159       0.09663261      -0.01801811       0.00064319      -0.01098204
Li       0.68229166       3.73902338      10.85144305        6      -0.00986223      -0.04708453       0.06506874       0.02481052      -0.00182441      -0.00596071
Li       5.48946434       4.27756921       2.18348342        7       0.03320142       0.02276471       0.00531401      -0.02500707       0.00509642       0.00234983
Li       3.08517440       0.00097606      -0.00001985        8      -0.01387866       0.04735250      -0.00883984       0.00221850      -0.00115150       0.00010219
Li       0.00420576       0.00058986       6.51557771        9       0.17304225       0.03291519      -0.08201121      -0.00563723      -0.00603740      -0.00226613
Li       3.08650850       4.01102529       0.00114950       10       0.04261016       0.07697049       0.04598711      -0.00081721      -0.00190834      -0.00153632
Li      -0.00095312       4.00833055       6.51421854       11      -0.06592645      -0.04610659      -0.06929780       0.00000556       0.00045598       0.00443368
P        0.93973205       2.00501138       1.16635675       12      -0.05280269       0.09139500       0.02915822      -0.00264362      -0.00563995       0.02137937
P        5.23141731       6.01378912      11.86682792       13       0.05354762      -0.16283631      -0.01202150      -0.00117079       0.00999325      -0.02337619
P        4.02609303       6.01459447       5.34984571       14      -0.14896003       0.06540948      -0.19322361      -0.01710745      -0.02369326      -0.01672486
P        2.14552812       2.00576842       7.68263814       15      -0.04106401       0.13957132      -0.00050991       0.02047832      -0.00807270       0.01790708
S        5.08958808       2.00340837       1.30578620       16      -0.17590028      -0.36502515       0.01016467      -0.25847462       0.00463151       0.01912113
S        1.08122951       6.01410126      11.72729237       17      -0.11968178       0.00238206       0.02762080       0.26737729      -0.00106828      -0.01881509
S        2.00284835       6.01282035       5.21025785       18      -0.20508252      -0.12480832      -0.19213027      -0.24199142       0.00475305      -0.01622160
S        4.16829687       2.00422228       7.82265031       19       0.09058406      -0.02961813       0.18202407       0.24789432       0.00370306       0.01477022
S        1.68141878       2.00588730      12.25955781       20       0.08724797       0.16243838       0.06743926       0.10729830      -0.00573403      -0.16005367
S        4.49082028       6.01396653       0.77428595       21       0.04967961       0.10057926       0.26260235      -0.10815602       0.00026954       0.15602422
S        4.76777048       6.01393126       7.28949496       22       0.17574924      -0.03157812       0.07818574       0.10348094       0.00058576       0.15900807
S        1.40455179       2.00475974       5.74243155       23      -0.02242047       0.05996781      -0.15009535      -0.10562769      -0.00387641      -0.15569490
S        1.67246240       0.29298728       2.00628502       24       0.05318094       0.05972341       0.17432482       0.13685691      -0.20427582       0.07928149
S        4.49872413       7.72622236      11.02690225       25      -0.13780674       0.11965133      -0.08818927      -0.12949274       0.19855799      -0.07774647
S        4.75886718       7.72543369       4.51112298       26       0.07102334      -0.01622037       0.05882823       0.13830516       0.21805948      -0.08994921
S        1.41296277       0.29343947       8.52109770       27      -0.19953618       0.02657576      -0.03298351      -0.13543376      -0.20814520       0.08548040
S        4.49914014       4.30144537      11.02844351       28      -0.01660066      -0.16036546       0.18266842      -0.13793433      -0.20717514      -0.08779244
S        1.67368427       3.71666442       2.00456186       29       0.26422765       0.06315041      -0.23039525       0.13106839       0.20881025       0.09226799
S        1.41340182       3.71706277       8.52163569       30       0.12045817       0.09008067      -0.01506470      -0.14125630       0.21300113       0.08583523
S        4.75848078       4.30151060       4.51042954       31      -0.04013432      -0.02912243      -0.02743854       0.12601952      -0.19846901      -0.08011539
32
Lattice="6.17176593 0.0 0.0 0.0 8.01859859 0.0 0.0 0.0 13.03281824" Properties=species:S:1:pos:R:3:spacegroup_kinds:I:1:momenta:R:3:forces:R:3 spacegroup="P 1" unit_cell=conventional occupancy="_JSON {\"0\": {\"Li\": 1}, \"1\": {\"Li\": 1}, \"2\": {\"Li\": 1}, \"3\": {\"Li\": 1}, \"4\": {\"Li\": 1}, \"5\": {\"Li\": 1}, \"6\": {\"Li\": 1}, \"7\": {\"Li\": 1}, \"8\": {\"Li\": 1}, \"9\": {\"Li\": 1}, \"10\": {\"Li\": 1}, \"11\": {\"Li\": 1}, \"12\": {\"P\": 1}, \"13\": {\"P\": 1}, \"14\": {\"P\": 1}, \"15\": {\"P\": 1}, \"16\": {\"S\": 1}, \"17\": {\"S\": 1}, \"18\": {\"S\": 1}, \"19\": {\"S\": 1}, \"20\": {\"S\": 1}, \"21\": {\"S\": 1}, \"22\": {\"S\": 1}, \"23\": {\"S\": 1}, \"24\": {\"S\": 1}, \"25\": {\"S\": 1}, \"26\": {\"S\": 1}, \"27\": {\"S\": 1}, \"28\": {\"S\": 1}, \"29\": {\"S\": 1}, \"30\": {\"S\": 1}, \"31\": {\"S\": 1}}" energy=-140.32289123535156 free_energy=-140.32289123535156 stress="-0.006787234451621771 3.6357823773869313e-06 7.528659625677392e-05 3.6357823773869313e-06 -0.007970847189426422 -3.406761970836669e-05 7.528659625677392e-05 -3.406761970836669e-05 -0.004893190693110228" pbc="T T T"
Li       2.40541551       0.26659606       4.33211973        0       0.06119068      -0.05924025      -0.03511783      -0.02986046       0.01171336       0.00065406
Li       3.76829031       7.75440945       8.69853051        1       0.04577599       0.04797892       0.06829335       0.02782869      -0.01705794       0.00138806
Li       5.49121090       7.74749483       2.18101787        2       0.00614110       0.03044390      -0.09199405      -0.02462779      -0.00277620       0.00657509
Li       0.68845264       0.26969547      10.84662882        3       0.06418081       0.03174543      -0.06463696       0.00961934       0.00400324       0.00259721
Li       3.76619782       4.27358096       8.69523259        4      -0.04386048      -0.10816421      -0.08876872       0.04021851       0.02044044       0.01217780
Li       2.39506949       3.73766551       4.33953016        5      -0.18284701      -0.02477638       0.06624009      -0.00473096       0.00408389      -0.01780526
Li       0.68345341       3.73799546      10.85777064        6       0.02799838       0.03180947       0.23448233       0.02174613      -0.00027261      -0.01904247
Li       5.49267387       4.27839312       2.18224400        7       0.12350243       0.03206272      -0.07100131      -0.03262997       0.00051707       0.00641549
Li       3.08496930       0.00080475       0.00102509        8       0.01963577      -0.07782106       0.00719839       0.00737492      -0.00147753      -0.00130884
Li       0.00711663      -0.00005478       6.51044155        9       0.01526641      -0.09927131      -0.18491683      -0.00493023      -0.00957404       0.00664589
Li       3.08616676       4.01365890       0.00495158       10      -0.05549329       0.09177214       0.13976064       0.00635433      -0.00223355      -0.00852208
Li      -0.00225388       4.00556562       6.51062707       11      -0.02015336      -0.17807204      -0.18679955      -0.00121675       0.00344874       0.01558195
P        0.94002534       2.00569895       1.16584871       12       0.12682102       0.03295717      -0.04638016      -0.03976903      -0.01833360       0.03308140
P        5.23277841       6.01265997      11.86569931       13       0.27763847      -0.10285879      -0.20507103      -0.06073801       0.04478509      -0.00947279
P        4.02543283       6.01548526       5.34797933       14       0.04449322       0.03117213      -0.26101138       0.00025656      -0.05966546       0.02549610
P        2.14447716       2.00711990       7.68361882       15      -0.40669491       0.16174173       0.05637692       0.04169325      -0.03459634      -0.00181771
S        5.08657432       1.99973307       1.30609995       16      -0.54908092      -0.44078455       0.13923154      -0.19610876       0.02374061       0.01795796
S        1.08075608       6.01419260      11.72660602       17       0.10704119       0.08843859       0.03964939       0.28919312       0.00065405      -0.01998879
S        2.00206461       6.01138418       5.20928608       18      -0.04565023      -0.15002153      -0.12749312      -0.23762406       0.01678877      -0.01823646
S        4.16909015       2.00445548       7.82457305       19       0.19210659      -0.03777068       0.21948750       0.21791098      -0.00008288       0.00598878
S        1.68256965       2.00717875      12.25948312       20       0.17581937       0.22721531       0.06981036       0.10418702      -0.01136483      -0.15280938
S        4.49081197       6.01474441       0.77591091       21      -0.00560944       0.20551488       0.27418604      -0.09582020      -0.00459467       0.12388629
S        4.76886418       6.01429628       7.28948321       22       0.02509779       0.10838696       0.01381997       0.08879131       0.00183463       0.13486740
S        1.40346195       2.00605810       5.74087816       23      -0.13255012       0.21345927      -0.35860196      -0.09401608      -0.01529689      -0.12803508
S        1.67348528       0.29347008       2.00746583       24       0.19214350       0.00805312       0.17532626       0.12875184      -0.18988650       0.06726635
S        4.49702380       7.72790604      11.02649256       25      -0.22244928       0.15294593      -0.10013607      -0.10383803       0.15780978      -0.05876662
S        4.75956117       7.72534379       4.51158484       26       0.13678637      -0.03914825       0.10881447       0.13695422       0.22817019      -0.10625682
S        1.41062539       0.29322988       8.52041938       27      -0.32908636       0.04714534      -0.11415548      -0.12357153      -0.19086432       0.07179552
S        4.49912377       4.29959438      11.02981029       28      -0.16576100      -0.26319075       0.16655940      -0.13438174      -0.19716336      -0.08866960
S        1.67557134       3.71774247       2.00372511       29       0.16117864       0.24853509      -0.13772486       0.11459324       0.19528402       0.09403902
S        1.41517146       3.71768922       8.52200550       30       0.23461515       0.15539768       0.11444468      -0.16214046       0.22406365       0.09496039
S        4.75843471       4.29973996       4.51173827       31       0.12180354      -0.36565598       0.18012798       0.11053044      -0.18209687      -0.09064274
32
Lattice="6.17176593 0.0 0.0 0.0 8.01859859 0.0 0.0 0.0 13.03281824" Properties=species:S:1:pos:R:3:spacegroup_kinds:I:1:momenta:R:3:forces:R:3 spacegroup="P 1" unit_cell=conventional occupancy="_JSON {\"0\": {\"Li\": 1}, \"1\": {\"Li\": 1}, \"2\": {\"Li\": 1}, \"3\": {\"Li\": 1}, \"4\": {\"Li\": 1}, \"5\": {\"Li\": 1}, \"6\": {\"Li\": 1}, \"7\": {\"Li\": 1}, \"8\": {\"Li\": 1}, \"9\": {\"Li\": 1}, \"10\": {\"Li\": 1}, \"11\": {\"Li\": 1}, \"12\": {\"P\": 1}, \"13\": {\"P\": 1}, \"14\": {\"P\": 1}, \"15\": {\"P\": 1}, \"16\": {\"S\": 1}, \"17\": {\"S\": 1}, \"18\": {\"S\": 1}, \"19\": {\"S\": 1}, \"20\": {\"S\": 1}, \"21\": {\"S\": 1}, \"22\": {\"S\": 1}, \"23\": {\"S\": 1}, \"24\": {\"S\": 1}, \"25\": {\"S\": 1}, \"26\": {\"S\": 1}, \"27\": {\"S\": 1}, \"28\": {\"S\": 1}, \"29\": {\"S\": 1}, \"30\": {\"S\": 1}, \"31\": {\"S\": 1}}" energy=-140.3250732421875 free_energy=-140.3250732421875 stress="-0.0063096946105360985 4.853401151194703e-06 9.088301885640249e-05 4.853401151194703e-06 -0.0077195605263113976 -3.6007637390866876e-05 9.088301885640249e-05 -3.6007637390866876e-05 -0.004598493687808514" pbc="T T T"
Li       2.40895607       0.26504556       4.33217235        0       0.12262024      -0.01770900       0.01647175      -0.03658311       0.01752304       0.00025751
Li       3.76988378       7.75535455       8.69949969        1       0.01198460       0.03581122       0.01114630       0.02399643      -0.01894598      -0.00433069
Li       5.48869384       7.74994127       2.17746129        2      -0.11455816       0.07238509      -0.06326375      -0.01572471      -0.00479664       0.01476415
Li       0.68874063       0.27081776      10.84408017        3      -0.00687516       0.02667985      -0.02781353       0.00422733       0.00911263       0.00882594
Li       3.76433053       4.27019721       8.69187718        4      -0.09521578      -0.05660413      -0.07502144       0.05269761       0.02842662       0.01731951
Li       2.38934721       3.73507759       4.34161442        5      -0.13992246      -0.01332409       0.06597133       0.01106188       0.01375720      -0.02357810
Li       0.68503518       3.73859733      10.86313584        6       0.04428085       0.04412581       0.11173087       0.01613591      -0.00179697      -0.02839362
Li       5.49733748       4.27886089       2.17792026        7       0.09564797       0.03641034      -0.10665390      -0.04645305      -0.00136059       0.01641301
Li       3.08677923      -0.00252945       0.00089597        8       0.11638512      -0.10908648      -0.01687533       0.00237979       0.00671412       0.00130213
Li       0.00706296      -0.00417514       6.50454976        9      -0.05368755      -0.09866092      -0.13078301       0.00192302      -0.00682284       0.02005816
Li       3.08440708       4.01925005       0.01040913       10      -0.04089963       0.20700859       0.12643426       0.01550618      -0.00503918      -0.02282599
Li      -0.00230459       3.99875030       6.50609523       11      -0.01224808      -0.24609401      -0.05853598      -0.00681733       0.01103112       0.02949554
P        0.94120512       2.00778864       1.16681705       12       0.23644759       0.48347381       0.10728983      -0.09715565      -0.06561042       0.01712250
P        5.23464347       6.01171752      11.86425665       13       0.25374125      -0.25347265      -0.13789653      -0.12098929       0.05986293      -0.00517502
P        4.02530602       6.01477828       5.34613935       14      -0.00221618      -0.20629196      -0.28914785       0.02901985      -0.08168994       0.05965805
P        2.14182895       2.00796427       7.68465717       15      -0.33867465       0.09382158       0.28409266       0.09440217      -0.04386430      -0.01669330
S        5.08270382       1.99602058       1.30745034       16      -0.46086277      -0.51426678       0.20225028      -0.11209117       0.05022768       0.01387504
S        1.08167978       6.01583962      11.72501918       17       0.21515083       0.25089416      -0.26500862       0.29083586      -0.00230679      -0.02031817
S        2.00268072       6.01082472       5.20907477       18       0.19649379       0.00468791       0.01229552      -0.24721234       0.01744308      -0.02427553
S        4.17002514       2.00367062       7.82650580       19       0.00675942      -0.24565314       0.26046089       0.16483539      -0.00275638      -0.00383254
S        1.68473652       2.00955190      12.26027453       20       0.33671297       0.32731972       0.11788563       0.09395951      -0.01775181      -0.14111698
S        4.49103746       6.01654733       0.77732657       21      -0.05820472       0.24761431       0.11521296      -0.07875319      -0.01444409       0.09169708
S        4.76889239       6.01397356       7.28962089       22      -0.02420306      -0.04235848      -0.00277902       0.08273509      -0.00140808       0.11184546
S        1.40253859       2.00740503       5.73859678       23      -0.05359194       0.06216865      -0.34160360      -0.08576999      -0.03049842      -0.09329497
S        1.67501799       0.29396233       2.00810429       24       0.18499956       0.14190442       0.00233270       0.11649345      -0.16885911       0.06053927
S        4.49391977       7.72861681      11.02563442       25      -0.60508238       0.01759031       0.01917013      -0.07417055       0.12121399      -0.04142521
S        4.76040013       7.72522341       4.51202376       26       0.09376625      -0.01072903      -0.10173800       0.13602388       0.22218309      -0.12041441
S        1.40846818       0.29305928       8.52004716       27      -0.25038026      -0.10034907      -0.07112920      -0.11940113      -0.18093041       0.05856490
S        4.49687295       4.29762202      11.03071306       28      -0.31294828      -0.34350195      -0.02085711      -0.11197968      -0.16869493      -0.07629426
S        1.67693132       3.71982017       2.00201998       29       0.23861310       0.42529311      -0.27558917       0.10731237       0.20111360       0.11445320
S        1.41719354       3.71945350       8.52340846       30       0.38659484       0.25228151       0.26828321      -0.18115789       0.21846905       0.09035763
S        4.75939086       4.29631142       4.51323188       31       0.02937268      -0.47136870       0.26366775       0.09071343      -0.15950125      -0.10458043
32
Lattice="6.17176593 0.0 0.0 0.0 8.01859859 0.0 0.0 0.0 13.03281824" Properties=species:S:1:pos:R:3:spacegroup_kinds:I:1:momenta:R:3:forces:R:3 spacegroup="P 1" unit_cell=conventional occupancy="_JSON {\"0\": {\"Li\": 1}, \"1\": {\"Li\": 1}, \"2\": {\"Li\": 1}, \"3\": {\"Li\": 1}, \"4\": {\"Li\": 1}, \"5\": {\"Li\": 1}, \"6\": {\"Li\": 1}, \"7\": {\"Li\": 1}, \"8\": {\"Li\": 1}, \"9\": {\"Li\": 1}, \"10\": {\"Li\": 1}, \"11\": {\"Li\": 1}, \"12\": {\"P\": 1}, \"13\": {\"P\": 1}, \"14\": {\"P\": 1}, \"15\": {\"P\": 1}, \"16\": {\"S\": 1}, \"17\": {\"S\": 1}, \"18\": {\"S\": 1}, \"19\": {\"S\": 1}, \"20\": {\"S\": 1}, \"21\": {\"S\": 1}, \"22\": {\"S\": 1}, \"23\": {\"S\": 1}, \"24\": {\"S\": 1}, \"25\": {\"S\": 1}, \"26\": {\"S\": 1}, \"27\": {\"S\": 1}, \"28\": {\"S\": 1}, \"29\": {\"S\": 1}, \"30\": {\"S\": 1}, \"31\": {\"S\": 1}}" energy=-140.3248291015625 free_energy=-140.3248291015625 stress="-0.005906297825276852 2.7782009055954404e-05 0.00012417724065016955 2.7782009055954404e-05 -0.007352115120738745 -9.046661580214277e-05 0.00012417724065016955 -9.046661580214277e-05 -0.0042947325855493546" pbc="T T T"
Li       2.41349578       0.26315802       4.33331880        0       0.11194985      -0.09720325       0.02108101      -0.04415502       0.02577757      -0.00509088
Li       3.77098704       7.75513972       8.69733268        1       0.05261040      -0.05922651      -0.09639559       0.02075743      -0.01990167      -0.00217392
Li       5.48581387       7.75558004       2.17605560        2      -0.06951709       0.27636096       0.01653037      -0.00629372      -0.01396174       0.01633135
Li       0.68990558       0.27200961      10.84263866        3       0.16495819       0.07322613      -0.06184822      -0.00591194       0.01562305       0.01183311
Li       3.75995340       4.26749220       8.69040022        4      -0.08193985      -0.07172183      -0.01389317       0.07018952       0.03467119       0.01789174
Li       2.38387482       3.73679873       4.34521562        5      -0.22297067       0.05359953       0.11913605       0.02246735       0.01403404      -0.03296115
Li       0.68609467       3.74126563      10.86503134        6       0.07324685       0.08066417       0.12583242       0.01215515      -0.00988654      -0.02962598
Li       5.50216190       4.27983503       2.17461828        7       0.19606917      -0.00919545      -0.10919292      -0.06339356      -0.00393919       0.02347680
Li       3.08941137      -0.00624380       0.00021481        8       0.04385403      -0.10897270      -0.00027237      -0.00452830       0.01644958       0.00930139
Li       0.00543465      -0.00691050       6.50108885        9      -0.05516343      -0.05667403      -0.07154061       0.00451248      -0.00434712       0.02562264
Li       3.08062934       4.02680419       0.01309181       10      -0.12584831       0.21089526       0.04589399       0.02635144      -0.00773649      -0.03572697
Li      -0.00320577       3.98979369       6.50340385       11       0.00375756      -0.24771612      -0.14887759      -0.01400438       0.01884384       0.04328250
P        0.94370203       2.01226184       1.16786103       12       0.36327943       0.58385053       0.12005017      -0.17794307      -0.15418085       0.01293174
P        5.23716912       6.00961168      11.86254820       13       0.35855056      -0.23984914      -0.14656376      -0.20215201       0.07671421      -0.00141497
P        4.02541183       6.01264056       5.34447022       14       0.04956685      -0.30410568      -0.24910222       0.08512433      -0.05899671       0.08594315
P        2.13883653       2.00871333       7.68597495       15      -0.35263250      -0.03086533       0.06473788       0.14199664      -0.05378564      -0.03217877
S        5.07918827       1.99233961       1.31040603       16      -0.51374699      -0.36319984       0.31075008      -0.01886860       0.08624732       0.00589489
S        1.08313486       6.01839597      11.72253906       17       0.24844872       0.34111389      -0.49028592       0.29019967      -0.01154584      -0.02075889
S        2.00464767       6.01127103       5.20970546       18       0.22512093       0.00616887       0.08444066      -0.27362895       0.01421080      -0.02957955