32
Lattice="6.17176593 0.0 0.0 0.0 8.01859859 0.0 0.0 0.0 13.03281824" Properties=species:S:1:pos:R:3:spacegroup_kinds:I:1:forces:R:3 spacegroup="P 1" unit_cell=conventional occupancy="_JSON {\"0\": {\"Li\": 1}, \"1\": {\"Li\": 1}, \"2\": {\"Li\": 1}, \"3\": {\"Li\": 1}, \"4\": {\"Li\": 1}, \"5\": {\"Li\": 1}, \"6\": {\"Li\": 1}, \"7\": {\"Li\": 1}, \"8\": {\"Li\": 1}, \"9\": {\"Li\": 1}, \"10\": {\"Li\": 1}, \"11\": {\"Li\": 1}, \"12\": {\"P\": 1}, \"13\": {\"P\": 1}, \"14\": {\"P\": 1}, \"15\": {\"P\": 1}, \"16\": {\"S\": 1}, \"17\": {\"S\": 1}, \"18\": {\"S\": 1}, \"19\": {\"S\": 1}, \"20\": {\"S\": 1}, \"21\": {\"S\": 1}, \"22\": {\"S\": 1}, \"23\": {\"S\": 1}, \"24\": {\"S\": 1}, \"25\": {\"S\": 1}, \"26\": {\"S\": 1}, \"27\": {\"S\": 1}, \"28\": {\"S\": 1}, \"29\": {\"S\": 1}, \"30\": {\"S\": 1}, \"31\": {\"S\": 1}}" energy=-140.31869506835938 free_energy=-140.31869506835938 stress="-0.007170631550252438 -4.832801270282516e-09 7.678957025802902e-09 -4.832801270282516e-09 -0.008259376510977745 9.185461280480922e-09 7.678957025802902e-09 9.185461280480922e-09 -0.005266301799565554" pbc="T T T"
Li       2.40329652       0.26860172       4.33400832        0      -0.02603523       0.00549116      -0.00432117
Li       3.76846941       7.74999687       8.69880992        1       0.02603718      -0.00549196       0.00432289
Li       5.48917948       7.74999687       2.18240080        2      -0.02603576      -0.00549114       0.00432296
Li       0.68258645       0.26860172      10.85041744        3       0.02603516       0.00549172      -0.00431902
Li       3.76846941       4.27790102       8.69880992        4       0.02603690       0.00549197       0.00432218
Li       2.40329652       3.74069757       4.33400832        5      -0.02603617      -0.00549152      -0.00432130
Li       0.68258645       3.74069757      10.85041744        6       0.02603629      -0.00549215      -0.00431985
Li       5.48917948       4.27790102       2.18240080        7      -0.02603626       0.00549155       0.00432267
Li       3.08588297       0.00000000       0.00000000        8      -0.00000014      -0.00000069      -0.00000067
Li       0.00000000       0.00000000       6.51640912        9      -0.00000018      -0.00000049      -0.00000020
Li       3.08588297       4.00929929       0.00000000       10      -0.00000028       0.00000143      -0.00000056
Li       0.00000000       4.00929929       6.51640912       11       0.00000001       0.00000042      -0.00000016
P        0.94051010       2.00464965       1.16601784       12      -0.02067181      -0.00000110       0.02376053
P        5.23125583       6.01394894      11.86680040       13       0.02066645      -0.00000004      -0.02376005
P        4.02639307       6.01394894       5.35039128       14      -0.02066671       0.00000124      -0.02375638
P        2.14537286       2.00464965       7.68242696       15       0.02066900      -0.00000215       0.02375678
S        5.08970823       2.00464965       1.30575389       16      -0.25450629       0.00000099       0.01679035
S        1.08205770       6.01394894      11.72706435       17       0.25450718       0.00000069      -0.01679163
S        2.00382526       6.01394894       5.21065523       18      -0.25450620       0.00000079      -0.01679098
S        4.16794067       2.00464965       7.82216301       19       0.25450090       0.00000042       0.01678935
S        1.68132889       2.00464965      12.25955363       20       0.10912207      -0.00000000      -0.16719505
S        4.49043704       6.01394894       0.77326461       21      -0.10912049       0.00000032       0.16718149
S        4.76721186       6.01394894       7.28967373       22       0.10912055       0.00000001       0.16717991
S        1.40455407       2.00464965       5.74314451       23      -0.10911953      -0.00000018      -0.16718166
S        1.67233151       0.29287049       2.00524453       24       0.13957854      -0.21272647       0.08709914
S        4.49943442       7.72572810      11.02757371       25      -0.13957562       0.21272469      -0.08709267
S        4.75821447       7.72572810       4.51116459       26       0.13957512       0.21272522      -0.08709250
S        1.41355146       0.29287049       8.52165365       27      -0.13957617      -0.21272020       0.08709145
S        4.49943442       4.30216979      11.02757371       28      -0.13957752      -0.21272570      -0.08709352
S        1.67233151       3.71642880       2.00524453       29       0.13957831       0.21272607       0.08709934
S        1.41355146       3.71642880       8.52165365       30      -0.13957627       0.21272056       0.08709125
S        4.75821447       4.30216979       4.51116459       31       0.13957682      -0.21272555      -0.08709301
