13
Lattice="7.26870274 0.0 0.0 3.634351370000001 6.294881225397555 0.0 3.634351370000001 2.0982937417991856 5.934870934989993" Properties=species:S:1:pos:R:3:spacegroup_kinds:I:1:momenta:R:3:forces:R:3 spacegroup="P 1" unit_cell=conventional occupancy="_JSON {\"0\": {\"Li\": 1}, \"1\": {\"Li\": 1}, \"2\": {\"Li\": 1}, \"3\": {\"Li\": 1}, \"4\": {\"Li\": 1}, \"5\": {\"Li\": 1}, \"6\": {\"P\": 1}, \"7\": {\"S\": 1}, \"8\": {\"S\": 1}, \"9\": {\"S\": 1}, \"10\": {\"S\": 1}, \"11\": {\"S\": 1}, \"12\": {\"Cl\": 1}}" energy=-53.334007263183594 free_energy=-53.334007263183594 stress="-0.001993525540456176 -0.001086510717868805 -0.0019133343594148755 -0.001086510717868805 -0.00122470548376441 -0.00013513874728232622 -0.0019133343594148755 -0.00013513874728232622 -0.002608852693811059" pbc="T T T"
Li       9.32512722       7.24214332       3.07178883        0       0.00837755      -0.28024440      -0.12268589      -0.16867474      -0.06595708      -0.09869230
Li      12.50430744       5.32318015       5.78730009        1       0.09370646      -0.09261597       0.23949490       0.12771195      -0.10581660       0.10501625
Li       9.18410796       5.41575033       5.86331746        2      -0.35285404       0.19522680      -0.04147103       0.03446092       0.13867535      -0.27333790
Li      12.58028706       7.28901154       3.18511055        3       0.09263422       0.11998270       0.10403357       0.07006718      -0.07978197       0.02753210
Li      10.87665975       4.47053612       2.98630621        4      -0.40539007       0.25972357      -0.41632529       0.07700316       0.11473289      -0.04884133
Li      11.04144609       8.25254894       5.73137007        5       0.42662387       0.19594037       0.23832408       0.04536317      -0.16245386       0.18735385
P        7.25591061       4.19097197       2.94831895        6      -0.41479369       0.25657290      -0.24211011       0.61011469       0.64995849       0.01353575
S        7.24571053       6.15366608       2.27563435        7       0.27051533       0.12540455       0.15331915       0.14609489      -0.25407645      -0.04599359
S        8.96362455       3.22294931       2.29764367        8      -0.01673569      -0.18503968       0.53836564      -0.22751847       0.04591709      -0.11766978
S        5.60163265       3.23792030       2.29690140        9       0.56966062       0.27107767      -0.10512857      -0.48333347      -0.35275769      -0.11498633
S        7.25701318       4.20451073       4.99377582       10       0.20229532       0.14604327      -0.20756532      -0.02069410       0.08309335       0.24464305
S       10.89874751       6.27982537       4.45993497       11      -0.37764059      -0.51546652      -0.30219334      -0.07755777       0.08829871       0.03571261
Cl       0.00277931      -0.05526021       0.02953910       12      -0.09639928      -0.49660525       0.16394220      -0.13303740      -0.09983225       0.08572766
