13
Lattice="7.26870274 0.0 0.0 3.634351370000001 6.294881225397555 0.0 3.634351370000001 2.0982937417991856 5.934870934989993" Properties=species:S:1:pos:R:3:spacegroup_kinds:I:1:momenta:R:3:forces:R:3 spacegroup="P 1" unit_cell=conventional occupancy="_JSON {\"0\": {\"Li\": 1}, \"1\": {\"Li\": 1}, \"2\": {\"Li\": 1}, \"3\": {\"Li\": 1}, \"4\": {\"Li\": 1}, \"5\": {\"Li\": 1}, \"6\": {\"P\": 1}, \"7\": {\"S\": 1}, \"8\": {\"S\": 1}, \"9\": {\"S\": 1}, \"10\": {\"S\": 1}, \"11\": {\"S\": 1}, \"12\": {\"Cl\": 1}}" energy=-53.3634147644043 free_energy=-53.3634147644043 stress="-0.0007942056399770081 -2.3423915251896688e-07 -1.615127587228926e-07 -2.3423915251896688e-07 -0.0007939313654787838 -1.0193258503932157e-07 -1.615127587228926e-07 -1.0193258503932157e-07 -0.0007939027273096144" pbc="T T T"
Li       9.25387995       7.24703237       3.10460814        0       0.00000000       0.00000000       0.00000000       0.00422642      -0.00243484       0.00344850
Li      12.55222827       5.34273008       5.79769826        1       0.00000000       0.00000000       0.00000000      -0.00421072       0.00243279      -0.00344100
Li       9.25387995       5.34273008       5.79769826        2       0.00000000       0.00000000       0.00000000       0.00422447       0.00243904      -0.00344665
Li      12.55222827       7.24703237       3.10460814        3       0.00000000       0.00000000       0.00000000      -0.00421181      -0.00243063       0.00344048
Li      10.90305411       4.39057894       3.10460814        4       0.00000000       0.00000000       0.00000000       0.00000245       0.00487574       0.00344763
Li      10.90305411       8.19918351       5.79769826        5       0.00000000       0.00000000       0.00000000       0.00000231      -0.00486324      -0.00344140
P        7.26870274       4.19658748       2.96743547        6       0.00000000       0.00000000       0.00000000       0.00008532       0.00004599       0.00003615
S        7.26870637       6.13578650       2.28182731        7       0.00000000       0.00000000       0.00000000      -0.00001854      -0.01090923       0.00384734
S        8.94810016       3.22699113       2.28182731        8       0.00000000       0.00000000       0.00000000      -0.00945809       0.00544045       0.00384695
S        5.58931258       3.22699113       2.28182731        9       0.00000000       0.00000000       0.00000000       0.00937805       0.00541330       0.00382993
S        7.26870637       4.19658958       5.02426588       10       0.00000000       0.00000000       0.00000000      -0.00001919      -0.00000981      -0.01156913
S       10.90305411       6.29488123       4.45115320       11       0.00000000       0.00000000       0.00000000      -0.00000177      -0.00000067      -0.00000008
Cl       0.00000000       0.00000000       0.00000000       12       0.00000000       0.00000000       0.00000000       0.00000118       0.00000111       0.00000130
13
Lattice="7.26870274 0.0 0.0 3.634351370000001 6.294881225397555 0.0 3.634351370000001 2.0982937417991856 5.934870934989993" Properties=species:S:1:pos:R:3:spacegroup_kinds:I:1:momenta:R:3:forces:R:3 spacegroup="P 1" unit_cell=conventional occupancy="_JSON {\"0\": {\"Li\": 1}, \"1\": {\"Li\": 1}, \"2\": {\"Li\": 1}, \"3\": {\"Li\": 1}, \"4\": {\"Li\": 1}, \"5\": {\"Li\": 1}, \"6\": {\"P\": 1}, \"7\": {\"S\": 1}, \"8\": {\"S\": 1}, \"9\": {\"S\": 1}, \"10\": {\"S\": 1}, \"11\": {\"S\": 1}, \"12\": {\"Cl\": 1}}" energy=-53.36331558227539 free_energy=-53.36331558227539 stress="-0.0005812251474708319 4.1725368646439165e-05 -1.7964059225050732e-05 4.1725368646439165e-05 -0.0008199507719837129 3.4567940019769594e-05 -1.7964059225050732e-05 3.4567940019769594e-05 -0.0008581487345509231" pbc="T T T"
Li       9.25461100       7.24743390       3.10420407        0       0.00129004       0.00294858      -0.07774482       0.00213902      -0.00570256       0.00260774
Li      12.55108093       5.34208144       5.79710851        1      -0.05303376      -0.02856546      -0.04258556      -0.00111533       0.00145513      -0.00072019
Li       9.25589647       5.34421994       5.79925276        2       0.02118660       0.11371908       0.02185432      -0.00290546      -0.00031359      -0.00844662
Li      12.55513666       7.24824384       3.10399912        3       0.17982019       0.04493553       0.04854560      -0.01214314      -0.00221083       0.00949703
Li      10.90588061       4.39519938       3.10422484        4       0.13888852       0.18769032      -0.06258432      -0.01065219      -0.00613213      -0.00807226
Li      10.90254025       8.20043992       5.79792053        5       0.03052537       0.07831912       0.03559433       0.00000847      -0.00952478      -0.00500331
P        7.26767344       4.19614751       2.96781647        6      -0.27724029      -0.09878042       0.04092029       0.02139373      -0.01058371      -0.01737456
S        7.26819450       6.13521486       2.28197853        7      -0.08706794      -0.20781425      -0.01583672       0.00338441      -0.01068433       0.00210889
S        8.94884387       3.22725809       2.28090457        8       0.24378211       0.03441075       0.00969383      -0.02477438       0.01906801       0.01461966
S        5.58790057       3.22652413       2.28200401        9      -0.20783345      -0.08018789       0.13859840       0.01704270       0.00875436       0.00697825
S        7.26847336       4.19659216       5.02387559       10      -0.05605543       0.04426796      -0.21818196       0.00285249       0.00353762      -0.00193217
S       10.90361785       6.29551718       4.45057816       11       0.07929301       0.14018676      -0.04324393       0.00355007       0.01193262       0.00428239
Cl       0.00033076      -0.00120635       0.00101926       12      -0.01355495      -0.23113006       0.16497053       0.00121967       0.00040419       0.00145522
13
Lattice="7.26870274 0.0 0.0 3.634351370000001 6.294881225397555 0.0 3.634351370000001 2.0982937417991856 5.934870934989993" Properties=species:S:1:pos:R:3:spacegroup_kinds:I:1:momenta:R:3:forces:R:3 spacegroup="P 1" unit_cell=conventional occupancy="_JSON {\"0\": {\"Li\": 1}, \"1\": {\"Li\": 1}, \"2\": {\"Li\": 1}, \"3\": {\"Li\": 1}, \"4\": {\"Li\": 1}, \"5\": {\"Li\": 1}, \"6\": {\"P\": 1}, \"7\": {\"S\": 1}, \"8\": {\"S\": 1}, \"9\": {\"S\": 1}, \"10\": {\"S\": 1}, \"11\": {\"S\": 1}, \"12\": {\"Cl\": 1}}" energy=-53.362937927246094 free_energy=-53.362937927246094 stress="-0.0004194258654024452 0.00014068665041122586 -4.427593376021832e-05 0.00014068665041122586 -0.000943268183618784 8.493282075505704e-05 -4.427593376021832e-05 8.493282075505704e-05 -0.0010305139003321528" pbc="T T T"
Li       9.25773842       7.24684066       3.10229624        0       0.20321794      -0.05798612      -0.10441094      -0.00503080      -0.00797850      -0.00332480
Li      12.54815683       5.34256880       5.79478263        1      -0.13267883       0.04168204      -0.08918210       0.01238376      -0.00638777       0.01276767
Li       9.25768115       5.34624648       5.79957236        2       0.05853557       0.11080190      -0.04885365      -0.01494303      -0.00488397      -0.00689445
Li      12.55987114       7.24959286       3.10527208        3       0.13269173       0.01937070       0.03866086      -0.02217611       0.00287743       0.01639216
Li      10.91143110       4.40058961       3.10077580        4       0.17098534       0.14409113      -0.16706577      -0.02936533      -0.01241201      -0.01851171
Li      10.90812298       8.19992753       5.79601575        5       0.32079638      -0.04974267      -0.06468883       0.00267298      -0.00357617       0.00424197
P        7.26621011       4.19648181       2.96863141        6      -0.09199995      -0.01490834       0.20138833       0.05575095      -0.03571459      -0.05008309
S        7.26700359       6.13462359       2.28260852        7      -0.29320408       0.09684578       0.09936709       0.01054328      -0.00033513      -0.00923197
S        8.94962482       3.22811121       2.28034478        8       0.06770225       0.14311186      -0.19274176      -0.04335150       0.03417379       0.02156332
S        5.58668198       3.22594421       2.28293081        9      -0.17815114      -0.11599432       0.02396516       0.02378171       0.00730299       0.00048776
S        7.26789969       4.19609868       5.02249733       10      -0.16380900      -0.15259847      -0.14685851       0.00238265       0.00975669       0.03197652
S       10.90367021       6.29611175       4.45036082       11       0.02909853       0.09400052       0.07799606       0.01172806       0.01866276      -0.00389765
Cl       0.00010057      -0.00296968       0.00231678       12      -0.12318475      -0.25867401       0.37242406      -0.00437664      -0.00148551       0.00451433
13
Lattice="7.26870274 0.0 0.0 3.634351370000001 6.294881225397555 0.0 3.634351370000001 2.0982937417991856 5.934870934989993" Properties=species:S:1:pos:R:3:spacegroup_kinds:I:1:momenta:R:3:forces:R:3 spacegroup="P 1" unit_cell=conventional occupancy="_JSON {\"0\": {\"Li\": 1}, \"1\": {\"Li\": 1}, \"2\": {\"Li\": 1}, \"3\": {\"Li\": 1}, \"4\": {\"Li\": 1}, \"5\": {\"Li\": 1}, \"6\": {\"P\": 1}, \"7\": {\"S\": 1}, \"8\": {\"S\": 1}, \"9\": {\"S\": 1}, \"10\": {\"S\": 1}, \"11\": {\"S\": 1}, \"12\": {\"Cl\": 1}}" energy=-53.361480712890625 free_energy=-53.361480712890625 stress="-0.00018169567920267582 0.0004538207722362131 1.9221866750740446e-05 0.0004538207722362131 -0.0009457190753892064 0.0002028956077992916 1.9221866750740446e-05 0.0002028956077992916 -0.0013166001299396157" pbc="T T T"
Li       9.26379480       7.24563527       3.09731111        0       0.15944972      -0.06606745      -0.14894577      -0.01527216      -0.00750607      -0.01454604
Li      12.54212432       5.34590494       5.79090679        1      -0.19002070       0.08368194      -0.17426612       0.03998207      -0.02273029       0.03334561
Li       9.25951977       5.35120845       5.79986515        2       0.01470292       0.09101804       0.06865750      -0.03671407      -0.01243457       0.00000018
Li      12.56556931       7.24856182       3.10536721        3       0.16894333      -0.07115631      -0.02472175      -0.04066432       0.01309247       0.02525444
Li      10.91896291       4.40758387       3.09521021        4       0.18236872       0.17292536      -0.16471396      -0.05256825      -0.02159024      -0.03211611
Li      10.91969799       8.20227174       5.79226786        5       0.36425937       0.12900563      -0.19502661       0.00801898      -0.01098902       0.02222849
P        7.26707965       4.19669423       2.97158060        6       0.24668827      -0.10786676       0.52283654       0.03367192      -0.05873480      -0.14391729
S        7.26509764       6.13502871       2.28423261        7      -0.23031831       0.06679613       0.16433683       0.03082958      -0.01064345      -0.01765897
S        8.94956269       3.22845810       2.27801371        8       0.06678666       0.12419144      -0.48634236      -0.04528990       0.04725913       0.03612872
S        5.58504732       3.22544742       2.28280613        9      -0.26508410       0.05194845       0.10146378       0.06355793       0.02063870       0.01138192
S        7.26617067       4.19419411       5.02089988       10      -0.33055108      -0.22365153      -0.20070065       0.00724737       0.03163132       0.09423359
S       10.90277367       6.29631514       4.45111476       11      -0.18629766      -0.00108583       0.14301702       0.02328451       0.03745458      -0.02660721
Cl      -0.00025028      -0.00482273       0.00469763       12      -0.00092713      -0.24973912       0.39440555      -0.01608363      -0.00544787       0.01227263
13
Lattice="7.26870274 0.0 0.0 3.634351370000001 6.294881225397555 0.0 3.634351370000001 2.0982937417991856 5.934870934989993" Properties=species:S:1:pos:R:3:spacegroup_kinds:I:1:momenta:R:3:forces:R:3 spacegroup="P 1" unit_cell=conventional occupancy="_JSON {\"0\": {\"Li\": 1}, \"1\": {\"Li\": 1}, \"2\": {\"Li\": 1}, \"3\": {\"Li\": 1}, \"4\": {\"Li\": 1}, \"5\": {\"Li\": 1}, \"6\": {\"P\": 1}, \"7\": {\"S\": 1}, \"8\": {\"S\": 1}, \"9\": {\"S\": 1}, \"10\": {\"S\": 1}, \"11\": {\"S\": 1}, \"12\": {\"Cl\": 1}}" energy=-53.358394622802734 free_energy=-53.358394622802734 stress="1.5137794434849638e-05 0.0008351727738045156 4.585404531098902e-05 0.0008351727738045156 -0.0008450379827991128 0.00027574828709475696 4.585404531098902e-05 0.00027574828709475696 -0.001562299206852913" pbc="T T T"
Li       9.27152306       7.24196403       3.08961222        0       0.30383953      -0.10000615      -0.27439802      -0.02793964      -0.00513404      -0.02914269
Li      12.53577871       5.34817706       5.78546426        1      -0.19283032       0.10650891      -0.13169155       0.06372792      -0.03732491       0.05721632
Li       9.26066497       5.35573174       5.80208818        2      -0.06339547       0.16720873       0.07597266      -0.05350212      -0.01536432       0.00314863
Li      12.57272840       7.24670378       3.10446341        3       0.20416412      -0.04668902      -0.00190546      -0.06636053       0.02419098       0.03820265
Li      10.92538048       4.41461344       3.08815001        4       0.14415036       0.23697707      -0.21916574      -0.07046776      -0.02320861      -0.04109291
Li      10.93351042       8.20721616       5.78535782        5       0.36720242       0.14169607      -0.24058322       0.01401755      -0.02576170       0.04962773
P        7.26907497       4.19587613       2.97518698        6       0.37639604      -0.18976403       0.33193025      -0.00930198      -0.05323198      -0.26012754
S        7.26158094       6.13571211       2.28551197        7      -0.56027666       0.10773631       0.20437172       0.06530690      -0.04369396      -0.02556678
S        8.95025871       3.22902543       2.27481599        8      -0.02322188       0.06991914      -0.31830225      -0.05077403       0.05615451       0.05472883
S        5.58307707       3.22495129       2.28416433        9      -0.26454560      -0.12474831       0.31248070       0.11101693       0.02810544       0.02369817
S        7.26280645       4.19345456       5.01950649       10      -0.32604666      -0.00811915      -0.13130986       0.02505912       0.05153840       0.16092242
S       10.90216574       6.29699402       4.45239699       11       0.00679429       0.06239301       0.28008905       0.03040162       0.05162626      -0.05499174
Cl      -0.00006928      -0.00742831       0.00716524       12       0.02776983      -0.42311258       0.11251173      -0.03118404      -0.00789610       0.02337689
13
Lattice="7.26870274 0.0 0.0 3.634351370000001 6.294881225397555 0.0 3.634351370000001 2.0982937417991856 5.934870934989993" Properties=species:S:1:pos:R:3:spacegroup_kinds:I:1:momenta:R:3:forces:R:3 spacegroup="P 1" unit_cell=conventional occupancy="_JSON {\"0\": {\"Li\": 1}, \"1\": {\"Li\": 1}, \"2\": {\"Li\": 1}, \"3\": {\"Li\": 1}, \"4\": {\"Li\": 1}, \"5\": {\"Li\": 1}, \"6\": {\"P\": 1}, \"7\": {\"S\": 1}, \"8\": {\"S\": 1}, \"9\": {\"S\": 1}, \"10\": {\"S\": 1}, \"11\": {\"S\": 1}, \"12\": {\"Cl\": 1}}" energy=-53.35485076904297 free_energy=-53.35485076904297 stress="0.00021185899095144123 0.0012329195160418749 0.00011446592543506995 0.0012329195160418749 -0.0007982506067492068 0.00029846903635188937 0.00011446592543506995 0.00029846903635188937 -0.0016048888210207224" pbc="T T T"
Li       9.28107907       7.23922960       3.08104400        0       0.25356319      -0.03610424      -0.23725271      -0.04372708      -0.00881504      -0.04243165
Li      12.53020122       5.35055843       5.78399299        1      -0.19716187       0.00824969      -0.06376143       0.08637896      -0.05055026       0.06735919
Li       9.25839796       5.36151642       5.80472616        2      -0.12953613       0.12384162       0.11720234      -0.06415648      -0.01181434       0.00582273
Li      12.57949935       7.24500204       3.10539434        3       0.20609324      -0.03799417       0.07381981      -0.08832341       0.03373362       0.05276466
Li      10.92866587       4.42110151       3.08194746        4       0.08849787       0.18742951      -0.15321850      -0.07585214      -0.02223568      -0.04595841
Li      10.94657967       8.21231395       5.77627286        5       0.33449986       0.14771885      -0.31399200       0.01965936      -0.03710190       0.08079604
P        7.27219024       4.19556147       2.97668204        6       0.38841205       0.09713447       0.11352032      -0.08729802      -0.03838700      -0.32149452
S        7.25718483       6.13698215       2.28579592        7      -0.57152040       0.10735401      -0.04088813       0.10866086      -0.07833183      -0.03686236
S        8.95141542       3.23000755       2.27299112        8       0.28129087       0.10056831      -0.18282739      -0.04607948       0.05219036       0.06411363
S        5.58061788       3.22409215       2.28685728        9      -0.23147291      -0.12246921       0.31109003       0.16654326       0.04254697       0.03085741
S        7.26002746       4.19330970       5.01863867       10      -0.43463112       0.11874499      -0.10196953       0.03968260       0.06984696       0.19157082
S       10.90217131       6.29710223       4.45470762       11       0.00690920       0.00972464       0.39112183       0.03079118       0.06126312      -0.08169711
Cl      -0.00000795      -0.01143426       0.00766490       12       0.00505615      -0.70419846       0.08715536      -0.04627968      -0.01234500       0.03515962
13
Lattice="7.26870274 0.0 0.0 3.634351370000001 6.294881225397555 0.0 3.634351370000001 2.0982937417991856 5.934870934989993" Properties=species:S:1:pos:R:3:spacegroup_kinds:I:1:momenta:R:3:forces:R:3 spacegroup="P 1" unit_cell=conventional occupancy="_JSON {\"0\": {\"Li\": 1}, \"1\": {\"Li\": 1}, \"2\": {\"Li\": 1}, \"3\": {\"Li\": 1}, \"4\": {\"Li\": 1}, \"5\": {\"Li\": 1}, \"6\": {\"P\": 1}, \"7\": {\"S\": 1}, \"8\": {\"S\": 1}, \"9\": {\"S\": 1}, \"10\": {\"S\": 1}, \"11\": {\"S\": 1}, \"12\": {\"Cl\": 1}}" energy=-53.35102844238281 free_energy=-53.35102844238281 stress="0.0003541782789397985 0.0015154671855270863 7.172609912231565e-05 0.0015154671855270863 -0.0009113155538216233 0.00029774016002193093 7.172609912231565e-05 0.00029774016002193093 -0.0017240267479792237" pbc="T T T"
Li       9.28874244       7.24046967       3.07561378        0       0.17419205       0.04996218      -0.11673430      -0.05972661      -0.02375731      -0.04968767
Li      12.52250268       5.35071379       5.78072366        1      -0.21728057      -0.03052999      -0.07792494       0.11450518      -0.06756612       0.09174345
Li       9.25307673       5.36644344       5.81016349        2      -0.16384469       0.13595352       0.16747728      -0.06427632      -0.00106942      -0.00830308
Li      12.58426632       7.24681611       3.10976984        3       0.10519688       0.09658991       0.12794413      -0.09366715       0.03401336       0.06188731
Li      10.93314755       4.42710560       3.07718352        4       0.11548979       0.13360327      -0.17063268      -0.08373499      -0.02193445      -0.05327846
Li      10.95545058       8.21498828       5.76535759        5       0.18353992       0.07200707      -0.33537005       0.02325903      -0.03206604       0.11703772
P        7.27519125       4.19612276       2.97677716        6       0.35550914       0.08971297      -0.07993918      -0.13702692      -0.02287133      -0.35634816
S        7.25340874       6.13786344       2.28473269        7      -0.44146509       0.17284658      -0.11686769       0.14193296      -0.09446508      -0.05038833
S        8.95314969       3.23036768       2.27314543        8       0.13217253      -0.03650168       0.21328745      -0.04133078       0.05422335       0.05930875
S        5.58020241       3.22334422       2.28928606        9       0.07662267      -0.13576823       0.31847732       0.19499347       0.05000817       0.03303114
S        7.25623138       4.19448303       5.01687440       10      -0.54539739       0.17324516      -0.32373615       0.05152865       0.07739290       0.22109202
S       10.90241907       6.29698478       4.45711767       11      -0.05216076       0.01442645       0.18366810       0.00984427       0.06434335      -0.10723843
Cl       0.00040394      -0.01671389       0.00853190       12       0.27742554      -0.73554722       0.21035070      -0.05630076      -0.01625137       0.04114365
13
Lattice="7.26870274 0.0 0.0 3.634351370000001 6.294881225397555 0.0 3.634351370000001 2.0982937417991856 5.934870934989993" Properties=species:S:1:pos:R:3:spacegroup_kinds:I:1:momenta:R:3:forces:R:3 spacegroup="P 1" unit_cell=conventional occupancy="_JSON {\"0\": {\"Li\": 1}, \"1\": {\"Li\": 1}, \"2\": {\"Li\": 1}, \"3\": {\"Li\": 1}, \"4\": {\"Li\": 1}, \"5\": {\"Li\": 1}, \"6\": {\"P\": 1}, \"7\": {\"S\": 1}, \"8\": {\"S\": 1}, \"9\": {\"S\": 1}, \"10\": {\"S\": 1}, \"11\": {\"S\": 1}, \"12\": {\"Cl\": 1}}" energy=-53.347076416015625 free_energy=-53.347076416015625 stress="0.00043574959272518754 0.001737996470183134 8.446750143775716e-05 0.001737996470183134 -0.001138112973421812 0.0002871820761356503 8.446750143775716e-05 0.0002871820761356503 -0.0019170492887496948" pbc="T T T"
Li       9.29438436       7.24466625       3.07200359        0       0.21232667       0.19308604      -0.05345851      -0.06929122      -0.04611800      -0.04951449
Li      12.51795261       5.34890824       5.77953823        1      -0.14926708      -0.11106515       0.00426994       0.12851241      -0.07665605       0.10263713
Li       9.24961603       5.37174170       5.81617820        2      -0.07213694       0.13695568       0.19129088      -0.07088877       0.00445394      -0.02386013
Li      12.58811999       7.25046775       3.11506463        3       0.06136534       0.10849791       0.17648558      -0.09557570       0.02597139       0.07109259
Li      10.93538854       4.43328330       3.07260860        4       0.07135468       0.14496233      -0.12599643      -0.08555890      -0.02444862      -0.06349770
Li      10.96245854       8.21777976       5.75252861        5       0.22575223       0.11551948      -0.34428928       0.02620828      -0.02756002       0.15795101
P        7.27802013       4.19713472       2.97542022        6       0.26097602       0.01640797      -0.13366872      -0.18903205      -0.00252989      -0.36704317
S        7.25046498       6.13934932       2.28461209        7      -0.33483672       0.10583260      -0.10716902       0.16868824      -0.10522258      -0.07435307
S        8.95364554       3.22998183       2.27358726        8       0.12111910       0.01295481      -0.00281688      -0.02178881       0.05441121       0.04829918
S        5.58042785       3.22261524       2.29171840        9       0.06420323       0.03168204       0.28110614       0.20666662       0.06120723       0.02801203
S        7.25256662       4.19501043       5.01394429       10      -0.46441214       0.13407906      -0.34459865       0.07070544       0.08698715       0.25246119
S       10.90267159       6.29594780       4.45922703       11       0.06503264      -0.28672473       0.32646751      -0.00489514       0.07020448      -0.12672849
Cl       0.00083032      -0.02133387       0.01004787       12      -0.06147702      -0.60218804       0.13237742      -0.06375043      -0.02070023       0.04454398
13
Lattice="7.26870274 0.0 0.0 3.634351370000001 6.294881225397555 0.0 3.634351370000001 2.0982937417991856 5.934870934989993" Properties=species:S:1:pos:R:3:spacegroup_kinds:I:1:momenta:R:3:forces:R:3 spacegroup="P 1" unit_cell=conventional occupancy="_JSON {\"0\": {\"Li\": 1}, \"1\": {\"Li\": 1}, \"2\": {\"Li\": 1}, \"3\": {\"Li\": 1}, \"4\": {\"Li\": 1}, \"5\": {\"Li\": 1}, \"6\": {\"P\": 1}, \"7\": {\"S\": 1}, \"8\": {\"S\": 1}, \"9\": {\"S\": 1}, \"10\": {\"S\": 1}, \"11\": {\"S\": 1}, \"12\": {\"Cl\": 1}}" energy=-53.3439826965332 free_energy=-53.3439826965332 stress="0.00044594024075195193 0.001900002360343933 9.279080404667184e-05 0.001900002360343933 -0.0012109875679016113 0.00018066972552333027 9.279080404667184e-05 0.00018066972552333027 -0.0020341130439192057" pbc="T T T"
Li       9.30060177       7.25193201       3.07121487        0       0.22200691       0.24477763      -0.02363449      -0.08453523      -0.07851830      -0.04734629
Li      12.51306902       5.34187382       5.77914430        1      -0.15014341      -0.23004123      -0.07571437       0.13463986      -0.08540687       0.10950083
Li       9.24475360       5.37555506       5.82629734        2      -0.21381223       0.09070847       0.39251875      -0.06409046       0.01649146      -0.06453789
Li      12.59130655       7.25481651       3.12292669        3       0.05911161       0.12238949       0.30584815      -0.08781336       0.01585576       0.07612652
Li      10.93681254       4.43662128       3.06712526        4       0.05546426       0.09420088      -0.20834254      -0.08948380      -0.01237823      -0.06310426
Li      10.97197773       8.21870668       5.74190857        5       0.31470978      -0.01952762      -0.26932681       0.03090868      -0.01906847       0.19145703
P        7.27944969       4.19695118       2.97310119        6       0.04425294      -0.04043882      -0.54686067      -0.20939049       0.06826978      -0.34848571
S        7.24762628       6.14105666       2.28316421        7      -0.16882972       0.29054807      -0.15571608       0.19080082      -0.12892629      -0.08230092
S        8.95440345       3.23074997       2.27464174        8       0.05145071       0.05397480       0.34588828      -0.00853989       0.03908289       0.03189516
S        5.58036084       3.22330962       2.29260533        9       0.00206853       0.08024358      -0.03009200       0.20473292       0.05391561       0.03258674
S        7.25040638       4.19628537       5.01167151       10      -0.26220835       0.18425513      -0.41009087       0.07932272       0.08130582       0.25739446
S       10.90336576       6.29326033       4.46159934       11       0.08794653      -0.33594673       0.32164864      -0.02568513       0.07174014      -0.13795915
Cl       0.00075635      -0.02519059       0.01136082       12      -0.04201754      -0.53514366       0.35387402      -0.07086667      -0.02236333       0.04477337
13
Lattice="7.26870274 0.0 0.0 3.634351370000001 6.294881225397555 0.0 3.634351370000001 2.0982937417991856 5.934870934989993" Properties=species:S:1:pos:R:3:spacegroup_kinds:I:1:momenta:R:3:forces:R:3 spacegroup="P 1" unit_cell=conventional occupancy="_JSON {\"0\": {\"Li\": 1}, \"1\": {\"Li\": 1}, \"2\": {\"Li\": 1}, \"3\": {\"Li\": 1}, \"4\": {\"Li\": 1}, \"5\": {\"Li\": 1}, \"6\": {\"P\": 1}, \"7\": {\"S\": 1}, \"8\": {\"S\": 1}, \"9\": {\"S\": 1}, \"10\": {\"S\": 1}, \"11\": {\"S\": 1}, \"12\": {\"Cl\": 1}}" energy=-53.341739654541016 free_energy=-53.341739654541016 stress="0.0002216339489677921 0.001929013873450458 8.42613462737063e-06 0.001929013873450458 -0.0012963836779817939 -3.744056084542535e-05 8.42613462737063e-06 -3.744056084542535e-05 -0.0021428694017231464" pbc="T T T"
Li       9.30726832       7.25762980       3.06998429        0       0.14146579       0.11540422      -0.02666513      -0.09936270      -0.10844254      -0.04775922
Li      12.50819206       5.33562324       5.77827436        1      -0.14427045      -0.14068933      -0.04258149       0.14702833      -0.09814765       0.12104148
Li       9.23604338       5.37971936       5.83896981        2      -0.27351603       0.13667659       0.34527714      -0.04648765       0.03537251      -0.12590089
Li      12.59280211       7.26004346       3.13537355        3       0.02655231       0.16150558       0.34815404      -0.06076179       0.00652523       0.06982791
Li      10.93783163       4.44016878       3.06071911        4      -0.03468884       0.09866614      -0.24536861      -0.09438634       0.00496808      -0.06023279
Li      10.98072459       8.21566849       5.73178981        5       0.17377841      -0.08965938      -0.29211424       0.03459100       0.01615131       0.22900367
P        7.27936757       4.19586834       2.96812796        6      -0.09231952      -0.23841041      -0.68219731      -0.18662168       0.17465605      -0.27051166
S        7.24612625       6.14323866       2.28151415        7      -0.09929462       0.30007078      -0.30346173       0.19559023      -0.15719074      -0.09025105
S        8.95490066       3.23116267       2.27754332        8       0.09530217       0.00282042       0.43694574       0.01220293       0.01545531      -0.00428726
S        5.58152712       3.22429186       2.29317550        9       0.13307512       0.16151646       0.14983004       0.16355264       0.02582048       0.02991697
S        7.24921514       4.19730160       5.00852589       10      -0.08260764       0.15114921      -0.40413418       0.07454840       0.06589292       0.24517776
S       10.90435647       6.29220496       4.46359303       11       0.11581230      -0.03690638       0.27090271      -0.06093615       0.04652697      -0.14114428
Cl       0.00001120      -0.02930620       0.01381597       12       0.04071102      -0.62214392       0.44541303      -0.07895726      -0.02758805       0.04511926
13