13
Lattice="7.26870274 0.0 0.0 3.634351370000001 6.294881225397555 0.0 3.634351370000001 2.0982937417991856 5.934870934989993" Properties=species:S:1:pos:R:3:spacegroup_kinds:I:1:forces:R:3 spacegroup="P 1" unit_cell=conventional occupancy="_JSON {\"0\": {\"Li\": 1}, \"1\": {\"Li\": 1}, \"2\": {\"Li\": 1}, \"3\": {\"Li\": 1}, \"4\": {\"Li\": 1}, \"5\": {\"Li\": 1}, \"6\": {\"P\": 1}, \"7\": {\"S\": 1}, \"8\": {\"S\": 1}, \"9\": {\"S\": 1}, \"10\": {\"S\": 1}, \"11\": {\"S\": 1}, \"12\": {\"Cl\": 1}}" energy=-53.3634147644043 free_energy=-53.3634147644043 stress="-0.0007942056399770081 -2.3423915251896688e-07 -1.615127587228926e-07 -2.3423915251896688e-07 -0.0007939313654787838 -1.0193258503932157e-07 -1.615127587228926e-07 -1.0193258503932157e-07 -0.0007939027273096144" pbc="T T T"
Li       9.25387995       7.24703237       3.10460814        0       0.00422642      -0.00243484       0.00344850
Li      12.55222827       5.34273008       5.79769826        1      -0.00421072       0.00243279      -0.00344100
Li       9.25387995       5.34273008       5.79769826        2       0.00422447       0.00243904      -0.00344665
Li      12.55222827       7.24703237       3.10460814        3      -0.00421181      -0.00243063       0.00344048
Li      10.90305411       4.39057894       3.10460814        4       0.00000245       0.00487574       0.00344763
Li      10.90305411       8.19918351       5.79769826        5       0.00000231      -0.00486324      -0.00344140
P        7.26870274       4.19658748       2.96743547        6       0.00008532       0.00004599       0.00003615
S        7.26870637       6.13578650       2.28182731        7      -0.00001854      -0.01090923       0.00384734
S        8.94810016       3.22699113       2.28182731        8      -0.00945809       0.00544045       0.00384695
S        5.58931258       3.22699113       2.28182731        9       0.00937805       0.00541330       0.00382993
S        7.26870637       4.19658958       5.02426588       10      -0.00001919      -0.00000981      -0.01156913
S       10.90305411       6.29488123       4.45115320       11      -0.00000177      -0.00000067      -0.00000008
Cl       0.00000000       0.00000000       0.00000000       12       0.00000118       0.00000111       0.00000130
