4
Lattice="3.128588 0.0 0.0 -1.5642939988088433 2.709436998432005 0.0 0.0 0.0 5.016955" Properties=species:S:1:pos:R:3:spacegroup_kinds:I:1:momenta:R:3:forces:R:3 spacegroup="P 1" unit_cell=conventional occupancy="_JSON {\"0\": {\"Al\": 1}, \"1\": {\"Al\": 1}, \"2\": {\"N\": 1}, \"3\": {\"N\": 1}}" energy=-29.623743057250977 free_energy=-29.623743057250977 stress="0.004300259053707123 -0.008672736585140228 0.002882228000089526 -0.008672736585140228 -0.006943925749510527 -0.004434799775481224 0.002882228000089526 -0.004434799775481224 -0.014838545583188534" pbc="T T T"
Al       1.54321203       0.89379626       2.53645988        0      -0.00705458      -0.41529125       0.79444962      -0.25250298       0.39302731      -0.87833476
Al       0.03580900       1.79893950       4.98957807        1       0.09337925      -0.29525118      -0.61191923      -0.16601248       0.14058149       0.62744474
N        1.59619756       0.90645096       4.40111855        2      -0.02189833       1.09350667       0.27120844      -0.08899667      -0.09593812       0.34910375
N       -0.05911262       1.83464210       1.91219260        3      -0.06442637      -0.38296430      -0.45373870       0.50751197      -0.43767065      -0.09821361
