4
Lattice="3.128588 0.0 0.0 -1.5642939988088433 2.709436998432005 0.0 0.0 0.0 5.016955" Properties=species:S:1:pos:R:3:spacegroup_kinds:I:1:momenta:R:3:forces:R:3 spacegroup="P 1" unit_cell=conventional occupancy="_JSON {\"0\": {\"Al\": 1}, \"1\": {\"Al\": 1}, \"2\": {\"N\": 1}, \"3\": {\"N\": 1}}" energy=-29.673717498779297 free_energy=-29.673717498779297 stress="-0.002225288888439536 -1.3645757235281053e-06 1.345340816527596e-08 -1.3645757235281053e-06 -0.002227533608675003 -2.341229965452385e-08 1.345340816527596e-08 -2.341229965452385e-08 -0.005453699734061956" pbc="T T T"
Al       1.56429556       0.90314476       2.50490041        0       0.68448204       0.53670047       0.91071479      -0.00003501       0.00002016       0.00553209
Al      -0.00000156       1.80629224       5.01337791        1       0.31075784       0.39520501      -1.87833745       0.00003409      -0.00002056       0.00552434
N        1.56429556       0.90314476       4.41849749        2      -0.23293981      -0.79739853      -0.40745139      -0.00003562       0.00002104      -0.00553057
N       -0.00000156       1.80629224       1.91001999        3      -0.76230006      -0.13450696       1.37507406       0.00003645      -0.00002039      -0.00552562
4
Lattice="3.128588 0.0 0.0 -1.5642939988088433 2.709436998432005 0.0 0.0 0.0 5.016955" Properties=species:S:1:pos:R:3:spacegroup_kinds:I:1:momenta:R:3:forces:R:3 spacegroup="P 1" unit_cell=conventional occupancy="_JSON {\"0\": {\"Al\": 1}, \"1\": {\"Al\": 1}, \"2\": {\"N\": 1}, \"3\": {\"N\": 1}}" energy=-29.433595657348633 free_energy=-29.433595657348633 stress="-0.013773431070148945 -0.016446443274617195 0.012948771007359028 -0.016446443274617195 -0.0239687692373991 0.009969727136194706 0.012948771007359028 0.009969727136194706 -0.01205935887992382" pbc="T T T"
Al       1.60246141       0.92231283       2.54150849        0       0.57498211      -0.13491997       1.02882478      -1.31301284      -0.49033427      -0.87831402
Al       0.00328788       1.81111139       4.94718774        1      -0.44725806       0.00118052      -1.07867313      -0.30154040      -0.59423369       1.18011892
N        1.53678588       0.85870779       4.38099594        2       0.14052034      -0.46066722       0.20203854       0.28490713       0.67984647       1.25553608
N       -0.05228245       1.80432671       2.00436660        3      -0.26824445       0.59440667      -0.15219017       1.32964587       0.40472153      -1.55734110
4
Lattice="3.128588 0.0 0.0 -1.5642939988088433 2.709436998432005 0.0 0.0 0.0 5.016955" Properties=species:S:1:pos:R:3:spacegroup_kinds:I:1:momenta:R:3:forces:R:3 spacegroup="P 1" unit_cell=conventional occupancy="_JSON {\"0\": {\"Al\": 1}, \"1\": {\"Al\": 1}, \"2\": {\"N\": 1}, \"3\": {\"N\": 1}}" energy=-29.5672550201416 free_energy=-29.5672550201416 stress="0.01291585247963667 0.0017024972476065159 0.0035793727729469538 0.0017024972476065159 -0.025857044383883476 -0.0053691621869802475 0.0035793727729469538 -0.0053691621869802475 -0.011435427702963352" pbc="T T T"
Al       1.59598185       0.90138486       2.55101265        0      -0.85004007      -0.64755160      -0.41676283      -0.33522701       0.74370408      -1.26921368
Al      -0.01311799       1.79082858       4.96769657        1      -0.24557015      -0.74327798       1.65595759      -0.18280187      -0.17026855       1.21499705
N        1.52960408       0.86779351       4.41996341        2       0.16413066       0.60763592       0.63654586       0.31887645       0.39321446      -0.09056901
N       -0.00060095       1.87475189       1.90756520        3       0.93147947       0.78319373      -1.87574060       0.19915220      -0.96664995       0.14478578
4
Lattice="3.128588 0.0 0.0 -1.5642939988088433 2.709436998432005 0.0 0.0 0.0 5.016955" Properties=species:S:1:pos:R:3:spacegroup_kinds:I:1:momenta:R:3:forces:R:3 spacegroup="P 1" unit_cell=conventional occupancy="_JSON {\"0\": {\"Al\": 1}, \"1\": {\"Al\": 1}, \"2\": {\"N\": 1}, \"3\": {\"N\": 1}}" energy=-29.406274795532227 free_energy=-29.406274795532227 stress="0.010688664391636848 0.016498295590281487 -0.008164018392562866 0.016498295590281487 -0.00942341797053814 -0.01555393636226654 -0.008164018392562866 -0.01555393636226654 -0.06125413998961449" pbc="T T T"
Al       1.53423927       0.87298460       2.51007453        0      -1.60925390       0.09619214      -1.03262340       0.74608803       1.00298595       0.03482378
Al      -0.01349003       1.78470222       5.05709164        1       0.21561231      -0.04339784       1.72443339       0.02271266       0.40732926      -1.66436887
N        1.55208973       0.92225132       4.42203509        2       0.38659390       0.63935802      -0.93002884       0.04495747      -0.39009726      -0.56986070
N        0.09667397       1.88681818       1.81230438        3       1.00704762      -0.69215224       0.23821886      -0.81375837      -1.02021825       2.19940615
4
Lattice="3.128588 0.0 0.0 -1.5642939988088433 2.709436998432005 0.0 0.0 0.0 5.016955" Properties=species:S:1:pos:R:3:spacegroup_kinds:I:1:momenta:R:3:forces:R:3 spacegroup="P 1" unit_cell=conventional occupancy="_JSON {\"0\": {\"Al\": 1}, \"1\": {\"Al\": 1}, \"2\": {\"N\": 1}, \"3\": {\"N\": 1}}" energy=-29.201902389526367 free_energy=-29.201902389526367 stress="-0.026441065594553947 0.038155749440193176 -0.03138251602649689 0.038155749440193176 -0.004877367988228798 0.0015436842804774642 -0.03138251602649689 0.0015436842804774642 -0.05182011425495148" pbc="T T T"
Al       1.49382401       0.87740193       2.48150488        0      -0.08661643      -0.02748772       0.25595516       2.48428321      -0.46186826       1.22611499
Al      -0.02076736       1.79337852       5.08843296        1       0.00716732       0.60209067      -1.27068229       0.64723206       0.57433474      -2.36004090
N        1.60157221       0.96971685       4.33361320        2       0.49437269       0.53651035      -0.17473416      -0.53882384      -0.70145398       1.74609041
N        0.13924907       1.81421453       1.89535167        3      -0.41492361      -1.11111321       1.18946129      -2.59269118       0.58898747      -0.61216408
4
Lattice="3.128588 0.0 0.0 -1.5642939988088433 2.709436998432005 0.0 0.0 0.0 5.016955" Properties=species:S:1:pos:R:3:spacegroup_kinds:I:1:momenta:R:3:forces:R:3 spacegroup="P 1" unit_cell=conventional occupancy="_JSON {\"0\": {\"Al\": 1}, \"1\": {\"Al\": 1}, \"2\": {\"N\": 1}, \"3\": {\"N\": 1}}" energy=-29.574626922607422 free_energy=-29.574626922607422 stress="-0.023618046194314957 -0.01432126760482788 -0.011127973906695843 -0.01432126760482788 0.01503011118620634 -0.0028546599205583334 -0.011127973906695843 -0.0028546599205583334 -0.01444034744054079" pbc="T T T"
Al       1.53421960       0.88369271       2.53780578        0       1.55944065       0.36820873       1.55970978       0.29264316      -0.24000511      -0.91367686
Al      -0.00048007       1.82107764       4.98837345        1       1.01688560       0.86374303      -2.47525418       0.94369495       0.52251768       0.78486514
N        1.63583966       0.96584650       4.40663184        2      -0.31021894      -0.52489289       1.27117421      -1.15103757      -0.78907394       0.05687870
N       -0.01177521       1.75252280       1.90648732        3      -2.26610733      -0.70705879      -0.35562977      -0.08530065       0.50656146       0.07193278
4
Lattice="3.128588 0.0 0.0 -1.5642939988088433 2.709436998432005 0.0 0.0 0.0 5.016955" Properties=species:S:1:pos:R:3:spacegroup_kinds:I:1:momenta:R:3:forces:R:3 spacegroup="P 1" unit_cell=conventional occupancy="_JSON {\"0\": {\"Al\": 1}, \"1\": {\"Al\": 1}, \"2\": {\"N\": 1}, \"3\": {\"N\": 1}}" energy=-29.3720703125 free_energy=-29.3720703125 stress="-0.005629768595099449 -0.018719391897320747 0.015849484130740166 -0.018719391897320747 -0.03227285295724869 0.017212243750691414 0.015849484130740166 0.017212243750691414 -0.007298183161765337" pbc="T T T"
Al       1.57072834       0.88046442       2.56331974        0      -0.00039244      -0.37629524      -0.57843979      -1.34386480      -0.44065857      -1.50707841
Al       0.05055071       1.86456080       4.94968572        1       0.52727023       0.77034138       1.04960108      -0.49129036      -1.36433864       1.82584929
N        1.58204798       0.88176662       4.44992392        2      -0.27832264      -1.02263370      -0.55459269       0.15003778       1.16376221      -0.85894966
N       -0.12661086       1.75915456       1.88869865        3      -0.24855520       0.62858766       0.08343147       1.68511724       0.64123487       0.54017878
4
Lattice="3.128588 0.0 0.0 -1.5642939988088433 2.709436998432005 0.0 0.0 0.0 5.016955" Properties=species:S:1:pos:R:3:spacegroup_kinds:I:1:momenta:R:3:forces:R:3 spacegroup="P 1" unit_cell=conventional occupancy="_JSON {\"0\": {\"Al\": 1}, \"1\": {\"Al\": 1}, \"2\": {\"N\": 1}, \"3\": {\"N\": 1}}" energy=-29.596923828125 free_energy=-29.596923828125 stress="0.01597614400088787 -0.004506023600697517 0.006018685642629862 -0.004506023600697517 -0.025499464944005013 -0.004597124177962542 0.006018685642629862 -0.004597124177962542 -0.010013912804424763" pbc="T T T"
Al       1.53284806       0.86390066       2.51395079        0      -1.59464534      -0.16469669      -1.74991211      -0.27820688       0.89915812      -0.15420556
Al       0.06317842       1.83227865       5.00948378        1       0.38440009      -1.80666602       1.59449814      -0.58708268      -0.41271341       0.16725133
N        1.58572475       0.89623788       4.41422579        2       0.14193176       1.12964937      -0.09119144       0.25704005       0.38076401       0.00228084
N       -0.08152106       1.83862424       1.90381443        3       1.06831346       0.84171344       0.24660541       0.60824955      -0.86720872      -0.01532647
4
Lattice="3.128588 0.0 0.0 -1.5642939988088433 2.709436998432005 0.0 0.0 0.0 5.016955" Properties=species:S:1:pos:R:3:spacegroup_kinds:I:1:momenta:R:3:forces:R:3 spacegroup="P 1" unit_cell=conventional occupancy="_JSON {\"0\": {\"Al\": 1}, \"1\": {\"Al\": 1}, \"2\": {\"N\": 1}, \"3\": {\"N\": 1}}" energy=-29.462553024291992 free_energy=-29.462553024291992 stress="-0.005697311367839575 0.010849406011402607 -0.003906631376594305 0.010849406011402607 -0.019133951514959335 -0.012703216634690762 -0.003906631376594305 -0.012703216634690762 -0.011871437542140484" pbc="T T T"
Al       1.48347328       0.88264395       2.44527937        0      -0.30454522       1.01149525      -0.60004455       0.88393044       0.95768404       1.70776951
Al       0.06164409       1.77681260       5.07306067        1      -0.86715293      -0.75617353       0.43048956      -0.30080584       0.71655375      -1.72279871
N        1.61717710       0.94947186       4.40498424        2       0.38645895       0.04830084       0.18623202      -0.07233992      -0.67486006       0.48910663
N       -0.01486931       1.85626149       1.92266699        3       0.78523917      -0.30362246      -0.01667700      -0.51078451      -0.99937749      -0.47407717
4
Lattice="3.128588 0.0 0.0 -1.5642939988088433 2.709436998432005 0.0 0.0 0.0 5.016955" Properties=species:S:1:pos:R:3:spacegroup_kinds:I:1:momenta:R:3:forces:R:3 spacegroup="P 1" unit_cell=conventional occupancy="_JSON {\"0\": {\"Al\": 1}, \"1\": {\"Al\": 1}, \"2\": {\"N\": 1}, \"3\": {\"N\": 1}}" energy=-29.518747329711914 free_energy=-29.518747329711914 stress="-0.02337043546140194 0.006540037225931883 -0.016098234802484512 0.006540037225931883 0.0066973976790905 -0.00048236039583571255 -0.016098234802484512 -0.00048236039583571255 -0.022161195054650307" pbc="T T T"
Al       1.50607636       0.94974319       2.46463704        0       1.15921308       0.62635216       1.50689797       1.24247634      -0.60704458       1.15697336
Al       0.01335469       1.75088043       5.06242873        1      -0.91112027       0.14825259      -0.88962527       0.51474565       0.69610572      -1.43089151
N        1.62637959       0.90489620       4.42127851        2      -0.14223507      -0.64065033       0.21498417      -0.71771806      -0.51824075      -0.07984675
N        0.02538011       1.82158364       1.88963021        3      -0.10585772      -0.13395432      -0.83225682      -1.03950381       0.42917985       0.35376498
4
Lattice="3.128588 0.0 0.0 -1.5642939988088433 2.709436998432005 0.0 0.0 0.0 5.016955" Properties=species:S:1:pos:R:3:spacegroup_kinds:I:1:momenta:R:3:forces:R:3 spacegroup="P 1" unit_cell=conventional occupancy="_JSON {\"0\": {\"Al\": 1}, \"1\": {\"Al\": 1}, \"2\": {\"N\": 1}, \"3\": {\"N\": 1}}" energy=-29.60500717163086 free_energy=-29.60500717163086 stress="0.001595676294527948 -0.006785854697227478 -0.003095525549724698 -0.006785854697227478 0.0017804690869525075 0.0017243747133761644 -0.003095525549724698 0.0017243747133761644 -0.023113694041967392" pbc="T T T"
Al       1.56693924       0.93861030       2.54470911        0       1.44875356      -0.98943843       1.48437263      -0.01659352      -0.29131740      -1.20300627
Al      -0.01304570       1.78057349       4.99752454        1       0.01689818       1.11024945      -1.70729935       0.38438851       0.02358191       0.50760365
N        1.58384204       0.87104971       4.42155568        2      -0.67927483      -0.02704918      -0.19037135      -0.39237040       0.15177906      -0.39792433
N        0.00122212       1.81989279       1.85992053        3      -0.78637691      -0.09376174       0.41329817       0.02457540       0.11595629       1.09332681
4
Lattice="3.128588 0.0 0.0 -1.5642939988088433 2.709436998432005 0.0 0.0 0.0 5.016955" Properties=species:S:1:pos:R:3:spacegroup_kinds:I:1:momenta:R:3:forces:R:3 spacegroup="P 1" unit_cell=conventional occupancy="_JSON {\"0\": {\"Al\": 1}, \"1\": {\"Al\": 1}, \"2\": {\"N\": 1}, \"3\": {\"N\": 1}}" energy=-29.470203399658203 free_energy=-29.470203399658203 stress="0.0032031030859798193 -0.017801649868488312 0.011838284321129322 -0.017801649868488312 -0.04134924337267876 0.007360017392784357 0.011838284321129322 0.007360017392784357 -0.005160340573638678" pbc="T T T"
Al       1.62755628       0.89950078       2.54516749        0       1.04970766      -0.99981874      -0.80202956      -1.41065156       0.15933204      -0.91778898
Al      -0.00757058       1.81703574       4.95606288        1      -0.03757977       0.11959835      -0.16512804      -0.26242557      -0.84351575       1.41445780
N        1.52756232       0.85151207       4.42065486        2      -0.42752207       0.29023059      -0.07965661       0.31765756       0.98894656      -0.00115428
N       -0.06966667       1.84442114       1.93994536        3      -0.58460584       0.58998980       1.04681439       1.35541964      -0.30476290      -0.49551448
4
Lattice="3.128588 0.0 0.0 -1.5642939988088433 2.709436998432005 0.0 0.0 0.0 5.016955" Properties=species:S:1:pos:R:3:spacegroup_kinds:I:1:momenta:R:3:forces:R:3 spacegroup="P 1" unit_cell=conventional occupancy="_JSON {\"0\": {\"Al\": 1}, \"1\": {\"Al\": 1}, \"2\": {\"N\": 1}, \"3\": {\"N\": 1}}" energy=-29.452985763549805 free_energy=-29.452985763549805 stress="-0.013225100003182888 -0.023750064894557 0.007911528460681438 -0.023750064894557 -0.047931771725416183 -0.0073333121836185455 0.007911528460681438 -0.0073333121836185455 0.02863278053700924" pbc="T T T"
Al       1.63184038       0.85684030       2.46693548        0      -0.97589066      -0.55899523      -1.34838311      -1.39010096       1.11026049       1.17303944
Al      -0.02377745       1.82170282       4.98999600        1      -0.28018848       0.45883540       1.28013467      -0.08533014       0.08283536       0.34697765
N        1.52792697       0.92957752       4.44479011        2       0.11446499       0.97873217       0.08012585       0.22036509      -0.17398778       0.05598725
N       -0.04718869       1.83921501       2.00086010        3       1.14161411      -0.87857233      -0.01187727       1.25506568      -1.01910794      -1.57600427
4
Lattice="3.128588 0.0 0.0 -1.5642939988088433 2.709436998432005 0.0 0.0 0.0 5.016955" Properties=species:S:1:pos:R:3:spacegroup_kinds:I:1:momenta:R:3:forces:R:3 spacegroup="P 1" unit_cell=conventional occupancy="_JSON {\"0\": {\"Al\": 1}, \"1\": {\"Al\": 1}, \"2\": {\"N\": 1}, \"3\": {\"N\": 1}}" energy=-29.53631591796875 free_energy=-29.53631591796875 stress="-0.01985759660601616 0.013828982599079609 -0.0057173678651452065 0.013828982599079609 -0.003164151916280389 -0.0016709471819922328 -0.0057173678651452065 -0.0016709471819922328 -0.0062606120482087135" pbc="T T T"
Al       1.56291506       0.86348349       2.43836898        0      -1.44558815       0.38889063       0.34075041       0.67285919       0.11609197       1.45909607
Al      -0.01834144       1.83613139       5.05736568        1       0.19731467      -0.00921518       1.04742051       0.06595097       0.15003556      -1.19267380
N        1.54726697       0.95741147       4.47045646        2      -0.01023973       0.05685015       0.14844008       0.09761555      -0.44420868      -0.65174770
N        0.05576967       1.77068662       1.90062729        3       1.25851318      -0.43652557      -1.53661092      -0.83642566       0.17808120       0.38532525
4
Lattice="3.128588 0.0 0.0 -1.5642939988088433 2.709436998432005 0.0 0.0 0.0 5.016955" Properties=species:S:1:pos:R:3:spacegroup_kinds:I:1:momenta:R:3:forces:R:3 spacegroup="P 1" unit_cell=conventional occupancy="_JSON {\"0\": {\"Al\": 1}, \"1\": {\"Al\": 1}, \"2\": {\"N\": 1}, \"3\": {\"N\": 1}}" energy=-29.5310001373291 free_energy=-29.5310001373291 stress="-0.01829398423433304 0.015707537531852722 -0.01160771120339632 0.015707537531852722 0.0031481171026825905 0.0046056704595685005 -0.01160771120339632 0.0046056704595685005 -0.01725883036851883" pbc="T T T"
Al       1.54701075       0.87273544       2.46070918        0       0.71855779      -0.11584377       0.49435356       1.07476830      -0.28505778       1.06925428
Al      -0.01761630       1.84389396       5.05391117        1       0.19346405       0.17720373      -0.69190105       0.23187760      -0.07941973      -1.16825020
N        1.56395353       0.94331123       4.45961400        2       0.32487448      -0.12409384      -0.51346239      -0.11547244      -0.20503271      -0.72920233
N        0.06831349       1.75176768       1.87546342        3      -1.23689632       0.06273386       0.71101005      -1.19117332       0.56951010       0.82819855
4
Lattice="3.128588 0.0 0.0 -1.5642939988088433 2.709436998432005 0.0 0.0 0.0 5.016955" Properties=species:S:1:pos:R:3:spacegroup_kinds:I:1:momenta:R:3:forces:R:3 spacegroup="P 1" unit_cell=conventional occupancy="_JSON {\"0\": {\"Al\": 1}, \"1\": {\"Al\": 1}, \"2\": {\"N\": 1}, \"3\": {\"N\": 1}}" energy=-29.61321258544922 free_energy=-29.61321258544922 stress="-0.008381866849958897 -0.004276677500456572 0.005492972210049629 -0.004276677500456572 -0.013937074691057205 0.001480432809330523 0.005492972210049629 0.001480432809330523 0.012475241906940937" pbc="T T T"
Al       1.57767910       0.87033377       2.48321565        0       0.42145850      -0.10085980       0.75449335      -0.50599515       0.14215396       0.64868432
Al       0.00878679       1.84488740       5.00616580        1       0.94842538       0.04829655      -0.67234586      -0.28191078      -0.37569737       0.05942382
N        1.54733737       0.91884315       4.41695259        2      -0.50233599      -0.06173853      -0.86681624       0.26756850       0.16352433       0.34766880
N       -0.02491945       1.77881444       1.96659670        3      -0.86754791       0.11430175       0.78466894       0.52033734       0.07001920      -1.05577672
4
Lattice="3.128588 0.0 0.0 -1.5642939988088433 2.709436998432005 0.0 0.0 0.0 5.016955" Properties=species:S:1:pos:R:3:spacegroup_kinds:I:1:momenta:R:3:forces:R:3 spacegroup="P 1" unit_cell=conventional occupancy="_JSON {\"0\": {\"Al\": 1}, \"1\": {\"Al\": 1}, \"2\": {\"N\": 1}, \"3\": {\"N\": 1}}" energy=-29.55784034729004 free_energy=-29.55784034729004 stress="-0.01636366732418537 -0.0029474771581590176 0.012903637252748013 -0.0029474771581590176 -0.006207401864230633 0.0015375075163319707 0.012903637252748013 0.0015375075163319707 -0.0027146697975695133" pbc="T T T"
Al       1.59068813       0.88023431       2.52274587        0      -0.41625631       0.17887102       0.33160827      -0.90884382      -0.14030826      -0.36868089
Al       0.01872290       1.83477378       4.97781995        1       0.14973977      -0.20763020      -0.17578495      -0.72829801      -0.10046375       0.72652721
N        1.52039168       0.92489996       4.39464378        2       0.19754382       0.25939836       0.47781780       0.72476077      -0.09604925       0.71574128
N       -0.04216863       1.77342025       1.96745698        3       0.06897271      -0.23063920      -0.63364099       0.91238129       0.33682159      -1.07358730
4
Lattice="3.128588 0.0 0.0 -1.5642939988088433 2.709436998432005 0.0 0.0 0.0 5.016955" Properties=species:S:1:pos:R:3:spacegroup_kinds:I:1:momenta:R:3:forces:R:3 spacegroup="P 1" unit_cell=conventional occupancy="_JSON {\"0\": {\"Al\": 1}, \"1\": {\"Al\": 1}, \"2\": {\"N\": 1}, \"3\": {\"N\": 1}}" energy=-29.62111473083496 free_energy=-29.62111473083496 stress="-0.021500837057828903 0.00527650211006403 -0.00326748751103878 0.00527650211006403 0.010657657869160175 0.001924984622746706 -0.00326748751103878 0.001924984622746706 -0.0015897167613729835" pbc="T T T"
Al       1.54767648       0.89587765       2.50832861        0      -0.85809980       0.46896511      -1.00003052       0.39160395      -0.39029238      -0.15032621
Al       0.00665801       1.82067517       5.00342498        1      -0.72966969      -0.11082652       1.46536764      -0.00949651       0.22696665       0.34862927
N        1.57185930       0.94293294       4.45440723        2       0.62349896      -0.37686544       0.64593153      -0.01969978      -0.43335050      -0.83890033
N        0.01256034       1.75229421       1.88600533        3       0.96427051       0.01872682      -1.11126857      -0.36240768       0.59667623       0.64059722
4
Lattice="3.128588 0.0 0.0 -1.5642939988088433 2.709436998432005 0.0 0.0 0.0 5.016955" Properties=species:S:1:pos:R:3:spacegroup_kinds:I:1:momenta:R:3:forces:R:3 spacegroup="P 1" unit_cell=conventional occupancy="_JSON {\"0\": {\"Al\": 1}, \"1\": {\"Al\": 1}, \"2\": {\"N\": 1}, \"3\": {\"N\": 1}}" energy=-29.520854949951172 free_energy=-29.520854949951172 stress="-0.014047511853277683 0.011820996180176735 -0.014255627058446407 0.011820996180176735 -0.005614834371954203 0.009361492469906807 -0.014255627058446407 0.009361492469906807 -0.01957103982567787" pbc="T T T"
Al       1.52999427       0.91403920       2.46474573        0       0.09545122      -0.23101242      -1.18071352       1.21875644      -0.63577121       0.99290043
Al      -0.00890656       1.82180733       5.05208969        1       0.31216920      -0.10747506       0.45537696       0.39472908      -0.38378513      -1.12710297
N        1.59437714       0.88605551       4.45928984        2      -0.04799013      -0.53350299      -0.20523313      -0.40810764       0.35579014      -0.79021621
N        0.05384447       1.77207219       1.87145004        3      -0.35963033       0.87199040       0.93056982      -1.20537794       0.66376632       0.92441905
4
Lattice="3.128588 0.0 0.0 -1.5642939988088433 2.709436998432005 0.0 0.0 0.0 5.016955" Properties=species:S:1:pos:R:3:spacegroup_kinds:I:1:momenta:R:3:forces:R:3 spacegroup="P 1" unit_cell=conventional occupancy="_JSON {\"0\": {\"Al\": 1}, \"1\": {\"Al\": 1}, \"2\": {\"N\": 1}, \"3\": {\"N\": 1}}" energy=-29.61878776550293 free_energy=-29.61878776550293 stress="0.010117731057107449 -0.0018220748752355576 -0.0018729985458776355 -0.0018220748752355576 -0.024783190339803696 0.004591151140630245 -0.0018729985458776355 0.004591151140630245 2.6542793420958333e-05" pbc="T T T"
Al       1.53818033       0.90928020       2.47247634        0       0.23228547      -0.27447289       1.41733394       0.21201181       0.18702428       0.85530865
Al       0.01802691       1.81430742       5.03506518        1       0.60360860      -0.42930286      -1.11140839       0.03760230      -0.69444269      -0.55142659
N        1.59518014       0.85128047       4.42414646        2       0.09084578       0.02420721      -0.77345429      -0.19470339       0.84070659       0.01228260
N       -0.01452988       1.83034439       1.92467361        3      -0.92673987       0.67956850       0.46752894      -0.05491065      -0.33328837      -0.31616485
4
Lattice="3.128588 0.0 0.0 -1.5642939988088433 2.709436998432005 0.0 0.0 0.0 5.016955" Properties=species:S:1:pos:R:3:spacegroup_kinds:I:1:momenta:R:3:forces:R:3 spacegroup="P 1" unit_cell=conventional occupancy="_JSON {\"0\": {\"Al\": 1}, \"1\": {\"Al\": 1}, \"2\": {\"N\": 1}, \"3\": {\"N\": 1}}" energy=-29.623743057250977 free_energy=-29.623743057250977 stress="0.004300259053707123 -0.008672736585140228 0.002882228000089526 -0.008672736585140228 -0.006943925749510527 -0.004434799775481224 0.002882228000089526 -0.004434799775481224 -0.014838545583188534" pbc="T T T"
Al       1.54321203       0.89379626       2.53645988        0      -0.00705458      -0.41529125       0.79444962      -0.25250298       0.39302731      -0.87833476
Al       0.03580900       1.79893950       4.98957807        1       0.09337925      -0.29525118      -0.61191923      -0.16601248       0.14058149       0.62744474
N        1.59619756       0.90645096       4.40111855        2      -0.02189833       1.09350667       0.27120844      -0.08899667      -0.09593812       0.34910375
N       -0.05911262       1.83464210       1.91219260        3      -0.06442637      -0.38296430      -0.45373870       0.50751197      -0.43767065      -0.09821361
