4
Lattice="3.128588 0.0 0.0 -1.5642939988088433 2.709436998432005 0.0 0.0 0.0 5.016955" Properties=species:S:1:pos:R:3:spacegroup_kinds:I:1:forces:R:3 spacegroup="P 1" unit_cell=conventional occupancy="_JSON {\"0\": {\"Al\": 1}, \"1\": {\"Al\": 1}, \"2\": {\"N\": 1}, \"3\": {\"N\": 1}}" energy=-29.673717498779297 free_energy=-29.673717498779297 stress="-0.002225288888439536 -1.3645757235281053e-06 1.345340816527596e-08 -1.3645757235281053e-06 -0.002227533608675003 -2.341229965452385e-08 1.345340816527596e-08 -2.341229965452385e-08 -0.005453699734061956" pbc="T T T"
Al       1.56429556       0.90314476       2.50490041        0      -0.00003501       0.00002016       0.00553209
Al      -0.00000156       1.80629224       5.01337791        1       0.00003409      -0.00002056       0.00552434
N        1.56429556       0.90314476       4.41849749        2      -0.00003562       0.00002104      -0.00553057
N       -0.00000156       1.80629224       1.91001999        3       0.00003645      -0.00002039      -0.00552562
