4
Lattice="3.128588 0.0 0.0 -1.5642939988088433 2.709436998432005 0.0 0.0 0.0 5.016955" Properties=species:S:1:pos:R:3:spacegroup_kinds:I:1:momenta:R:3:forces:R:3 spacegroup="P 1" unit_cell=conventional occupancy="_JSON {\"0\": {\"Al\": 1}, \"1\": {\"Al\": 1}, \"2\": {\"N\": 1}, \"3\": {\"N\": 1}}" energy=-29.62373924255371 free_energy=-29.62373924255371 stress="0.004300488159060478 -0.008672595955431461 0.002881839871406555 -0.008672595955431461 -0.00694363983348012 -0.0044345976784825325 0.002881839871406555 -0.0044345976784825325 -0.014839142560958862" pbc="T T T"
Al       1.54321204       0.89379622       2.53645982        0      -0.00705421      -0.41529153       0.79444949      -0.25250009       0.39303097      -0.87834722
Al       0.03580898       1.79893951       4.98957809        1       0.09337905      -0.29525150      -0.61191863      -0.16600913       0.14057998       0.62745297
N        1.59619756       0.90645091       4.40111848        2      -0.02189816       1.09350700       0.27120854      -0.08899850      -0.09593631       0.34911191
N       -0.05911257       1.83464215       1.91219263        3      -0.06442666      -0.38296396      -0.45373933       0.50750774      -0.43767476      -0.09821757
