4
Lattice="3.128588 0.0 0.0 -1.5642939988088433 2.709436998432005 0.0 0.0 0.0 5.016955" Properties=species:S:1:pos:R:3:spacegroup_kinds:I:1:momenta:R:3:forces:R:3 spacegroup="P 1" unit_cell=conventional occupancy="_JSON {\"0\": {\"Al\": 1}, \"1\": {\"Al\": 1}, \"2\": {\"N\": 1}, \"3\": {\"N\": 1}}" energy=-29.673717498779297 free_energy=-29.673717498779297 stress="-0.0022254157811403275 -1.353068455500761e-06 1.32001680697158e-08 -1.353068455500761e-06 -0.0022273827344179153 -8.548767027605209e-08 1.32001680697158e-08 -8.548767027605209e-08 -0.005453646648675203" pbc="T T T"
Al       1.56429556       0.90314476       2.50490041        0       0.68448204       0.53670047       0.91071479      -0.00003556       0.00002112       0.00553205
Al      -0.00000156       1.80629224       5.01337791        1       0.31075784       0.39520501      -1.87833745       0.00003375      -0.00001749       0.00552414
N        1.56429556       0.90314476       4.41849749        2      -0.23293981      -0.79739853      -0.40745139      -0.00003548       0.00001858      -0.00553099
N       -0.00000156       1.80629224       1.91001999        3      -0.76230006      -0.13450696       1.37507406       0.00003723      -0.00002207      -0.00552528
4
Lattice="3.128588 0.0 0.0 -1.5642939988088433 2.709436998432005 0.0 0.0 0.0 5.016955" Properties=species:S:1:pos:R:3:spacegroup_kinds:I:1:momenta:R:3:forces:R:3 spacegroup="P 1" unit_cell=conventional occupancy="_JSON {\"0\": {\"Al\": 1}, \"1\": {\"Al\": 1}, \"2\": {\"N\": 1}, \"3\": {\"N\": 1}}" energy=-29.43359375 free_energy=-29.43359375 stress="-0.01377356518059969 -0.016446378082036972 0.012948784977197647 -0.016446378082036972 -0.023968616500496864 0.00996970571577549 0.012948784977197647 0.00996970571577549 -0.012059470638632774" pbc="T T T"
Al       1.60246140       0.92231284       2.54150849        0       0.57498213      -0.13491949       1.02882491      -1.31301343      -0.49033415      -0.87831384
Al       0.00328788       1.81111139       4.94718774        1      -0.44725804       0.00118059      -1.07867344      -0.30154157      -0.59423125       1.18011856
N        1.53678589       0.85870780       4.38099594        2       0.14052036      -0.46066729       0.20203886       0.28490761       0.67984390       1.25553608
N       -0.05228244       1.80432669       2.00436659        3      -0.26824442       0.59440618      -0.15219039       1.32964754       0.40472153      -1.55734086
4
Lattice="3.128588 0.0 0.0 -1.5642939988088433 2.709436998432005 0.0 0.0 0.0 5.016955" Properties=species:S:1:pos:R:3:spacegroup_kinds:I:1:momenta:R:3:forces:R:3 spacegroup="P 1" unit_cell=conventional occupancy="_JSON {\"0\": {\"Al\": 1}, \"1\": {\"Al\": 1}, \"2\": {\"N\": 1}, \"3\": {\"N\": 1}}" energy=-29.567256927490234 free_energy=-29.567256927490234 stress="0.012915688566863537 0.0017025892157107592 0.003579402342438698 0.0017025892157107592 -0.025856925174593925 -0.005368970800191164 0.003579402342438698 -0.005368970800191164 -0.011435220949351788" pbc="T T T"
Al       1.59598186       0.90138487       2.55101264        0      -0.85003955      -0.64755186      -0.41676332      -0.33522567       0.74370086      -1.26921129
Al      -0.01311799       1.79082859       4.96769657        1      -0.24557011      -0.74327766       1.65595778      -0.18280378      -0.17026861       1.21499574
N        1.52960408       0.86779351       4.41996343        2       0.16413052       0.60763558       0.63654597       0.31887734       0.39321327      -0.09057070
N       -0.00060095       1.87475186       1.90756520        3       0.93147916       0.78319391      -1.87574044       0.19915214      -0.96664578       0.14478630
4
Lattice="3.128588 0.0 0.0 -1.5642939988088433 2.709436998432005 0.0 0.0 0.0 5.016955" Properties=species:S:1:pos:R:3:spacegroup_kinds:I:1:momenta:R:3:forces:R:3 spacegroup="P 1" unit_cell=conventional occupancy="_JSON {\"0\": {\"Al\": 1}, \"1\": {\"Al\": 1}, \"2\": {\"N\": 1}, \"3\": {\"N\": 1}}" energy=-29.406272888183594 free_energy=-29.406272888183594 stress="0.010688790120184422 0.01649806648492813 -0.008164005354046822 0.01649806648492813 -0.009423207491636276 -0.015554023906588554 -0.008164005354046822 -0.015554023906588554 -0.06125418469309807" pbc="T T T"
Al       1.53423930       0.87298461       2.51007451        0      -1.60925343       0.09619170      -1.03262329       0.74608672       1.00298727       0.03482278
Al      -0.01349003       1.78470222       5.05709164        1       0.21561227      -0.04339816       1.72443336       0.02271243       0.40732864      -1.66436791
N        1.55208974       0.92225131       4.42203510        2       0.38659414       0.63935837      -0.93002932       0.04495792      -0.39009613      -0.56986248
N        0.09667394       1.88681817       1.81230440        3       1.00704703      -0.69215195       0.23821930      -0.81375706      -1.02022004       2.19940758
4
Lattice="3.128588 0.0 0.0 -1.5642939988088433 2.709436998432005 0.0 0.0 0.0 5.016955" Properties=species:S:1:pos:R:3:spacegroup_kinds:I:1:momenta:R:3:forces:R:3 spacegroup="P 1" unit_cell=conventional occupancy="_JSON {\"0\": {\"Al\": 1}, \"1\": {\"Al\": 1}, \"2\": {\"N\": 1}, \"3\": {\"N\": 1}}" energy=-29.201904296875 free_energy=-29.201904296875 stress="-0.02644084393978119 0.03815547749400139 -0.03138250485062599 0.03815547749400139 -0.004877400118857622 0.001543774618767202 -0.03138250485062599 0.001543774618767202 -0.05181972309947014" pbc="T T T"
Al       1.49382403       0.87740191       2.48150486        0      -0.08661699      -0.02748744       0.25595545       2.48428106      -0.46186534       1.22610950
Al      -0.02076736       1.79337851       5.08843299        1       0.00716735       0.60209049      -1.27068193       0.64723182       0.57433534      -2.36003590
N        1.60157223       0.96971686       4.33361318        2       0.49437268       0.53651050      -0.17473458      -0.53882617      -0.70145398       1.74609041
N        0.13924903       1.81421453       1.89535167        3      -0.41492300      -1.11111357       1.18946109      -2.59268689       0.58898419      -0.61216378
4
Lattice="3.128588 0.0 0.0 -1.5642939988088433 2.709436998432005 0.0 0.0 0.0 5.016955" Properties=species:S:1:pos:R:3:spacegroup_kinds:I:1:momenta:R:3:forces:R:3 spacegroup="P 1" unit_cell=conventional occupancy="_JSON {\"0\": {\"Al\": 1}, \"1\": {\"Al\": 1}, \"2\": {\"N\": 1}, \"3\": {\"N\": 1}}" energy=-29.574628829956055 free_energy=-29.574628829956055 stress="-0.02361779659986496 -0.014321338385343552 -0.011127950623631477 -0.014321338385343552 0.015030077658593655 -0.0028545730747282505 -0.011127950623631477 -0.0028545730747282505 -0.014440232887864113" pbc="T T T"
Al       1.53421961       0.88369271       2.53780578        0       1.55944026       0.36820877       1.55971012       0.29264581      -0.24000831      -0.91367745
Al      -0.00048007       1.82107763       4.98837349        1       1.01688531       0.86374288      -2.47525469       0.94369549       0.52251577       0.78486311
N        1.63583967       0.96584653       4.40663180        2      -0.31021872      -0.52489287       1.27117464      -1.15103674      -0.78907132       0.05687697
N       -0.01177519       1.75252276       1.90648728        3      -2.26610684      -0.70705879      -0.35563004      -0.08530454       0.50656354       0.07193747
4
Lattice="3.128588 0.0 0.0 -1.5642939988088433 2.709436998432005 0.0 0.0 0.0 5.016955" Properties=species:S:1:pos:R:3:spacegroup_kinds:I:1:momenta:R:3:forces:R:3 spacegroup="P 1" unit_cell=conventional occupancy="_JSON {\"0\": {\"Al\": 1}, \"1\": {\"Al\": 1}, \"2\": {\"N\": 1}, \"3\": {\"N\": 1}}" energy=-29.372068405151367 free_energy=-29.372068405151367 stress="-0.005629281047731638 -0.018719464540481567 0.015849394723773003 -0.018719464540481567 -0.03227260708808899 0.017212197184562683 0.015849394723773003 0.017212197184562683 -0.007298250682651997" pbc="T T T"
Al       1.57072834       0.88046442       2.56331973        0      -0.00039190      -0.37629525      -0.57844000      -1.34386230      -0.44065455      -1.50707901
Al       0.05055069       1.86456080       4.94968574        1       0.52727019       0.77034202       1.04960069      -0.49128848      -1.36434269       1.82584810
N        1.58204803       0.88176661       4.44992393        2      -0.27832259      -1.02263450      -0.55459266       0.15003583       1.16376507      -0.85894871
N       -0.12661084       1.75915454       1.88869861        3      -0.24855575       0.62858771       0.08343203       1.68511510       0.64123231       0.54017937
4
Lattice="3.128588 0.0 0.0 -1.5642939988088433 2.709436998432005 0.0 0.0 0.0 5.016955" Properties=species:S:1:pos:R:3:spacegroup_kinds:I:1:momenta:R:3:forces:R:3 spacegroup="P 1" unit_cell=conventional occupancy="_JSON {\"0\": {\"Al\": 1}, \"1\": {\"Al\": 1}, \"2\": {\"N\": 1}, \"3\": {\"N\": 1}}" energy=-29.596923828125 free_energy=-29.596923828125 stress="0.015976563096046448 -0.004506044089794159 0.0060186139307916164 -0.004506044089794159 -0.025499310344457626 -0.004597061779350042 0.0060186139307916164 -0.004597061779350042 -0.010014022700488567" pbc="T T T"
Al       1.53284809       0.86390066       2.51395076        0      -1.59464473      -0.16469661      -1.74991328      -0.27820504       0.89915729      -0.15420781
Al       0.06317841       1.83227867       5.00948379        1       0.38440047      -1.80666593       1.59449885      -0.58708417      -0.41271880       0.16725220
N        1.58572478       0.89623783       4.41422578        2       0.14193121       1.12964917      -0.09119200       0.25704059       0.38076952       0.00228091
N       -0.08152108       1.83862420       1.90381447        3       1.06831301       0.84171338       0.24660648       0.60824883      -0.86720818      -0.01532536
4
Lattice="3.128588 0.0 0.0 -1.5642939988088433 2.709436998432005 0.0 0.0 0.0 5.016955" Properties=species:S:1:pos:R:3:spacegroup_kinds:I:1:momenta:R:3:forces:R:3 spacegroup="P 1" unit_cell=conventional occupancy="_JSON {\"0\": {\"Al\": 1}, \"1\": {\"Al\": 1}, \"2\": {\"N\": 1}, \"3\": {\"N\": 1}}" energy=-29.462553024291992 free_energy=-29.462553024291992 stress="-0.005697321146726608 0.010849526152014732 -0.003906584810465574 0.010849526152014732 -0.019134052097797394 -0.01270315796136856 -0.003906584810465574 -0.01270315796136856 -0.011871319264173508" pbc="T T T"
Al       1.48347332       0.88264395       2.44527930        0      -0.30454549       1.01149527      -0.60004492       0.88393056       0.95768428       1.70776999
Al       0.06164411       1.77681260       5.07306069        1      -0.86715223      -0.75617447       0.43048920      -0.30080748       0.71655250      -1.72279775
N        1.61717706       0.94947182       4.40498424        2       0.38645820       0.04830135       0.18623273      -0.07233810      -0.67485970       0.48910588
N       -0.01486934       1.85626148       1.92266707        3       0.78523948      -0.30362214      -0.01667692      -0.51078510      -0.99937725      -0.47407788
4
Lattice="3.128588 0.0 0.0 -1.5642939988088433 2.709436998432005 0.0 0.0 0.0 5.016955" Properties=species:S:1:pos:R:3:spacegroup_kinds:I:1:momenta:R:3:forces:R:3 spacegroup="P 1" unit_cell=conventional occupancy="_JSON {\"0\": {\"Al\": 1}, \"1\": {\"Al\": 1}, \"2\": {\"N\": 1}, \"3\": {\"N\": 1}}" energy=-29.51875114440918 free_energy=-29.51875114440918 stress="-0.023370930925011635 0.006540087051689625 -0.01609817147254944 0.006540087051689625 0.006697543431073427 -0.00048237861483357847 -0.01609817147254944 -0.00048237861483357847 -0.022161373868584633" pbc="T T T"
Al       1.50607637       0.94974321       2.46463697        0       1.15921253       0.62635232       1.50689889       1.24247527      -0.60704744       1.15697479
Al       0.01335471       1.75088039       5.06242873        1      -0.91112043       0.14825210      -0.88962571       0.51474351       0.69610643      -1.43089104
N        1.62637953       0.90489620       4.42127857        2      -0.14223482      -0.64065033       0.21498434      -0.71771497      -0.51824182      -0.07984639
N        0.02538013       1.82158363       1.88963027        3      -0.10585729      -0.13395409      -0.83225749      -1.03950393       0.42918319       0.35376281
4
Lattice="3.128588 0.0 0.0 -1.5642939988088433 2.709436998432005 0.0 0.0 0.0 5.016955" Properties=species:S:1:pos:R:3:spacegroup_kinds:I:1:momenta:R:3:forces:R:3 spacegroup="P 1" unit_cell=conventional occupancy="_JSON {\"0\": {\"Al\": 1}, \"1\": {\"Al\": 1}, \"2\": {\"N\": 1}, \"3\": {\"N\": 1}}" energy=-29.60500717163086 free_energy=-29.60500717163086 stress="0.0015958009753376245 -0.006785804405808449 -0.0030954594258219004 -0.006785804405808449 0.0017805801471695304 0.001724288216792047 -0.0030954594258219004 0.001724288216792047 -0.023113667964935303" pbc="T T T"
Al       1.56693923       0.93861031       2.54470909        0       1.44875325      -0.98943851       1.48437324      -0.01659279      -0.29131606      -1.20300639
Al      -0.01304570       1.78057344       4.99752454        1       0.01689772       1.11024978      -1.70729922       0.38438699       0.02358397       0.50760430
N        1.58384205       0.87104971       4.42155576        2      -0.67927416      -0.02704968      -0.19037179      -0.39236864       0.15177755      -0.39792487
N        0.00122215       1.81989280       1.85992050        3      -0.78637683      -0.09376154       0.41329782       0.02457455       0.11595464       1.09332681
4
Lattice="3.128588 0.0 0.0 -1.5642939988088433 2.709436998432005 0.0 0.0 0.0 5.016955" Properties=species:S:1:pos:R:3:spacegroup_kinds:I:1:momenta:R:3:forces:R:3 spacegroup="P 1" unit_cell=conventional occupancy="_JSON {\"0\": {\"Al\": 1}, \"1\": {\"Al\": 1}, \"2\": {\"N\": 1}, \"3\": {\"N\": 1}}" energy=-29.470205307006836 free_energy=-29.470205307006836 stress="0.0032032825984060764 -0.017801519483327866 0.011838346719741821 -0.017801519483327866 -0.04134901240468025 0.007359947543591261 0.011838346719741821 0.007359947543591261 -0.005160161294043064" pbc="T T T"
Al       1.62755626       0.89950078       2.54516749        0       1.04970775      -0.99981902      -0.80202912      -1.41064644       0.15933380      -0.91779220
Al      -0.00757058       1.81703571       4.95606289        1      -0.03757943       0.11959878      -0.16512774      -0.26242679      -0.84351778       1.41445839
N        1.52756238       0.85151201       4.42065482        2      -0.42752193       0.29023032      -0.07965807       0.31765786       0.98894823      -0.00115456
N       -0.06966666       1.84442118       1.93994536        3      -0.58460641       0.58998996       1.04681499       1.35541546      -0.30476433      -0.49551183
4
Lattice="3.128588 0.0 0.0 -1.5642939988088433 2.709436998432005 0.0 0.0 0.0 5.016955" Properties=species:S:1:pos:R:3:spacegroup_kinds:I:1:momenta:R:3:forces:R:3 spacegroup="P 1" unit_cell=conventional occupancy="_JSON {\"0\": {\"Al\": 1}, \"1\": {\"Al\": 1}, \"2\": {\"N\": 1}, \"3\": {\"N\": 1}}" energy=-29.452987670898438 free_energy=-29.452987670898438 stress="-0.013225032947957516 -0.02375020831823349 0.007911461405456066 -0.02375020831823349 -0.047931794077157974 -0.007333230227231979 0.007911461405456066 -0.007333230227231979 0.028633005917072296" pbc="T T T"
Al       1.63184038       0.85684030       2.46693548        0      -0.97589027      -0.55899500      -1.34838351      -1.39010763       1.11026192       1.17303300
Al      -0.02377742       1.82170281       4.98999600        1      -0.28018762       0.45883549       1.28013445      -0.08532326       0.08283392       0.34697711
N        1.52792699       0.92957747       4.44479005        2       0.11446410       0.97873244       0.08012642       0.22035916      -0.17398679       0.05598930
N       -0.04718873       1.83921502       2.00086013        3       1.14161375      -0.87857290      -0.01187731       1.25507176      -1.01910901      -1.57599986
4
Lattice="3.128588 0.0 0.0 -1.5642939988088433 2.709436998432005 0.0 0.0 0.0 5.016955" Properties=species:S:1:pos:R:3:spacegroup_kinds:I:1:momenta:R:3:forces:R:3 spacegroup="P 1" unit_cell=conventional occupancy="_JSON {\"0\": {\"Al\": 1}, \"1\": {\"Al\": 1}, \"2\": {\"N\": 1}, \"3\": {\"N\": 1}}" energy=-29.53631591796875 free_energy=-29.53631591796875 stress="-0.019857577979564667 0.013829037547111511 -0.005717379041016102 0.013829037547111511 -0.0031642161775380373 -0.0016709850169718266 -0.005717379041016102 -0.0016709850169718266 -0.006260713096708059" pbc="T T T"
Al       1.56291506       0.86348350       2.43836897        0      -1.44558841       0.38889072       0.34074989       0.67285949       0.11609393       1.45909750
Al      -0.01834138       1.83613136       5.05736567        1       0.19731488      -0.00921535       1.04742063       0.06595140       0.15003532      -1.19267559
N        1.54726694       0.95741147       4.47045646        2      -0.01023980       0.05685067       0.14844067       0.09761496      -0.44420886      -0.65174752
N        0.05576963       1.77068658       1.90062730        3       1.25851332      -0.43652608      -1.53661119      -0.83642566       0.17807929       0.38532591
4
Lattice="3.128588 0.0 0.0 -1.5642939988088433 2.709436998432005 0.0 0.0 0.0 5.016955" Properties=species:S:1:pos:R:3:spacegroup_kinds:I:1:momenta:R:3:forces:R:3 spacegroup="P 1" unit_cell=conventional occupancy="_JSON {\"0\": {\"Al\": 1}, \"1\": {\"Al\": 1}, \"2\": {\"N\": 1}, \"3\": {\"N\": 1}}" energy=-29.5310001373291 free_energy=-29.5310001373291 stress="-0.018294157460331917 0.01570737175643444 -0.011607756838202477 0.01570737175643444 0.0031476363074034452 0.004605607129633427 -0.011607756838202477 0.004605607129633427 -0.017258618026971817" pbc="T T T"
Al       1.54701073       0.87273544       2.46070914        0       0.71855749      -0.11584487       0.49435333       1.07476723      -0.28505886       1.06925440
Al      -0.01761626       1.84389395       5.05391118        1       0.19346339       0.17720449      -0.69190054       0.23187459      -0.07941888      -1.16825151
N        1.56395353       0.94331123       4.45961404        2       0.32487502      -0.12409416      -0.51346234      -0.11546957      -0.20503220      -0.72920626
N        0.06831348       1.75176763       1.87546339        3      -1.23689590       0.06273448       0.71100957      -1.19117212       0.56951010       0.82820320
4
Lattice="3.128588 0.0 0.0 -1.5642939988088433 2.709436998432005 0.0 0.0 0.0 5.016955" Properties=species:S:1:pos:R:3:spacegroup_kinds:I:1:momenta:R:3:forces:R:3 spacegroup="P 1" unit_cell=conventional occupancy="_JSON {\"0\": {\"Al\": 1}, \"1\": {\"Al\": 1}, \"2\": {\"N\": 1}, \"3\": {\"N\": 1}}" energy=-29.61321449279785 free_energy=-29.61321449279785 stress="-0.008381708525121212 -0.004276581574231386 0.00549281807616353 -0.004276581574231386 -0.013937045820057392 0.0014805084792897105 0.00549281807616353 0.0014805084792897105 0.012475431896746159" pbc="T T T"
Al       1.57767908       0.87033372       2.48321563        0       0.42145897      -0.10086010       0.75449412      -0.50598651       0.14215302       0.64867604
Al       0.00878680       1.84488742       5.00616581        1       0.94842503       0.04829705      -0.67234604      -0.28191066      -0.37569737       0.05942836
N        1.54733741       0.91884313       4.41695258        2      -0.50233586      -0.06173875      -0.86681719       0.26756799       0.16352484       0.34766674
N       -0.02491943       1.77881444       1.96659668        3      -0.86754814       0.11430175       0.78466911       0.52032912       0.07001943      -1.05577135
4
Lattice="3.128588 0.0 0.0 -1.5642939988088433 2.709436998432005 0.0 0.0 0.0 5.016955" Properties=species:S:1:pos:R:3:spacegroup_kinds:I:1:momenta:R:3:forces:R:3 spacegroup="P 1" unit_cell=conventional occupancy="_JSON {\"0\": {\"Al\": 1}, \"1\": {\"Al\": 1}, \"2\": {\"N\": 1}, \"3\": {\"N\": 1}}" energy=-29.55784034729004 free_energy=-29.55784034729004 stress="-0.016364019364118576 -0.0029477125499397516 0.012903734110295773 -0.0029477125499397516 -0.006207748781889677 0.0015376153169199824 0.012903734110295773 0.0015376153169199824 -0.002714479109272361" pbc="T T T"
Al       1.59068814       0.88023427       2.52274585        0      -0.41625599       0.17887153       0.33160812      -0.90884495      -0.14030959      -0.36867747
Al       0.01872291       1.83477379       4.97781997        1       0.14974021      -0.20763101      -0.17578497      -0.72829783      -0.10046387       0.72652364
N        1.52039170       0.92489996       4.39464370        2       0.19754300       0.25939911       0.47781758       0.72475904      -0.09605057       0.71574128
N       -0.04216865       1.77342024       1.96745699        3       0.06897275      -0.23063965      -0.63364078       0.91238374       0.33682415      -1.07358754
4
Lattice="3.128588 0.0 0.0 -1.5642939988088433 2.709436998432005 0.0 0.0 0.0 5.016955" Properties=species:S:1:pos:R:3:spacegroup_kinds:I:1:momenta:R:3:forces:R:3 spacegroup="P 1" unit_cell=conventional occupancy="_JSON {\"0\": {\"Al\": 1}, \"1\": {\"Al\": 1}, \"2\": {\"N\": 1}, \"3\": {\"N\": 1}}" energy=-29.621110916137695 free_energy=-29.621110916137695 stress="-0.021500909700989723 0.005276471842080355 -0.0032675308175385 0.005276471842080355 0.010657728649675846 0.0019249327015131712 -0.0032675308175385 0.0019249327015131712 -0.0015898204874247313" pbc="T T T"
Al       1.54767650       0.89587763       2.50832860        0      -0.85809963       0.46896565      -1.00002976       0.39160427      -0.39029336      -0.15032330
Al       0.00665802       1.82067515       5.00342497        1      -0.72966962      -0.11082689       1.46536635      -0.00950206       0.22697297       0.34862852
N        1.57185926       0.94293299       4.45440722        2       0.62349857      -0.37686529       0.64593294      -0.01969510      -0.43335548      -0.83889985
N        0.01256033       1.75229415       1.88600531        3       0.96427067       0.01872651      -1.11126963      -0.36240712       0.59667587       0.64059448
4
Lattice="3.128588 0.0 0.0 -1.5642939988088433 2.709436998432005 0.0 0.0 0.0 5.016955" Properties=species:S:1:pos:R:3:spacegroup_kinds:I:1:momenta:R:3:forces:R:3 spacegroup="P 1" unit_cell=conventional occupancy="_JSON {\"0\": {\"Al\": 1}, \"1\": {\"Al\": 1}, \"2\": {\"N\": 1}, \"3\": {\"N\": 1}}" energy=-29.520856857299805 free_energy=-29.520856857299805 stress="-0.014047237113118172 0.011821000836789608 -0.014255579560995102 0.011821000836789608 -0.005614571273326874 0.009361451491713524 -0.014255579560995102 0.009361451491713524 -0.019571051001548767" pbc="T T T"
Al       1.52999431       0.91403919       2.46474573        0       0.09545105      -0.23101240      -1.18071443       1.21875310      -0.63577026       0.99289817
Al      -0.00890655       1.82180732       5.05208964        1       0.31216890      -0.10747468       0.45537742       0.39472821      -0.38378459      -1.12710166
N        1.59437709       0.88605552       4.45928989        2      -0.04798998      -0.53350355      -0.20523334      -0.40810657       0.35578898      -0.79021668
N        0.05384447       1.77207215       1.87144999        3      -0.35962998       0.87199065       0.93057042      -1.20537496       0.66376567       0.92442048
4
Lattice="3.128588 0.0 0.0 -1.5642939988088433 2.709436998432005 0.0 0.0 0.0 5.016955" Properties=species:S:1:pos:R:3:spacegroup_kinds:I:1:momenta:R:3:forces:R:3 spacegroup="P 1" unit_cell=conventional occupancy="_JSON {\"0\": {\"Al\": 1}, \"1\": {\"Al\": 1}, \"2\": {\"N\": 1}, \"3\": {\"N\": 1}}" energy=-29.61878776550293 free_energy=-29.61878776550293 stress="0.010117740370333195 -0.0018220558995380998 -0.001873031840659678 -0.0018220558995380998 -0.024783046916127205 0.004591088742017746 -0.001873031840659678 0.004591088742017746 2.6383015210740268e-05" pbc="T T T"
Al       1.53818034       0.90928019       2.47247630        0       0.23228529      -0.27447339       1.41733324       0.21200758       0.18702152       0.85530818
Al       0.01802690       1.81430743       5.03506517        1       0.60360824      -0.42930265      -1.11140771       0.03760306      -0.69444048      -0.55142713
N        1.59518012       0.85128042       4.42414644        2       0.09084610       0.02420677      -0.77345489      -0.19470423       0.84070498       0.01228276
N       -0.01452983       1.83034437       1.92467364        3      -0.92673964       0.67956931       0.46752946      -0.05490645      -0.33328587      -0.31616405
4
Lattice="3.128588 0.0 0.0 -1.5642939988088433 2.709436998432005 0.0 0.0 0.0 5.016955" Properties=species:S:1:pos:R:3:spacegroup_kinds:I:1:momenta:R:3:forces:R:3 spacegroup="P 1" unit_cell=conventional occupancy="_JSON {\"0\": {\"Al\": 1}, \"1\": {\"Al\": 1}, \"2\": {\"N\": 1}, \"3\": {\"N\": 1}}" energy=-29.62373924255371 free_energy=-29.62373924255371 stress="0.004300488159060478 -0.008672595955431461 0.002881839871406555 -0.008672595955431461 -0.00694363983348012 -0.0044345976784825325 0.002881839871406555 -0.0044345976784825325 -0.014839142560958862" pbc="T T T"
Al       1.54321204       0.89379622       2.53645982        0      -0.00705421      -0.41529153       0.79444949      -0.25250009       0.39303097      -0.87834722
Al       0.03580898       1.79893951       4.98957809        1       0.09337905      -0.29525150      -0.61191863      -0.16600913       0.14057998       0.62745297
N        1.59619756       0.90645091       4.40111848        2      -0.02189816       1.09350700       0.27120854      -0.08899850      -0.09593631       0.34911191
N       -0.05911257       1.83464215       1.91219263        3      -0.06442666      -0.38296396      -0.45373933       0.50750774      -0.43767476      -0.09821757
