4
Lattice="3.128588 0.0 0.0 -1.5642939988088433 2.709436998432005 0.0 0.0 0.0 5.016955" Properties=species:S:1:pos:R:3:spacegroup_kinds:I:1:forces:R:3 spacegroup="P 1" unit_cell=conventional occupancy="_JSON {\"0\": {\"Al\": 1}, \"1\": {\"Al\": 1}, \"2\": {\"N\": 1}, \"3\": {\"N\": 1}}" energy=-29.673717498779297 free_energy=-29.673717498779297 stress="-0.0022254157811403275 -1.353068455500761e-06 1.32001680697158e-08 -1.353068455500761e-06 -0.0022273827344179153 -8.548767027605209e-08 1.32001680697158e-08 -8.548767027605209e-08 -0.005453646648675203" pbc="T T T"
Al       1.56429556       0.90314476       2.50490041        0      -0.00003556       0.00002112       0.00553205
Al      -0.00000156       1.80629224       5.01337791        1       0.00003375      -0.00001749       0.00552414
N        1.56429556       0.90314476       4.41849749        2      -0.00003548       0.00001858      -0.00553099
N       -0.00000156       1.80629224       1.91001999        3       0.00003723      -0.00002207      -0.00552528
