4
Lattice="3.128588 0.0 0.0 -1.5642939988088433 2.709436998432005 0.0 0.0 0.0 5.016955" Properties=species:S:1:pos:R:3:spacegroup_kinds:I:1:forces:R:3 spacegroup="P 1" unit_cell=conventional occupancy="_JSON {\"0\": {\"Al\": 1}, \"1\": {\"Al\": 1}, \"2\": {\"N\": 1}, \"3\": {\"N\": 1}}" energy=-29.67371940612793 free_energy=-29.67371940612793 stress="-0.0022254588548094034 -1.3556319800045458e-06 3.05220346774604e-08 -1.3556319800045458e-06 -0.0022273005452007055 -5.866596808346003e-08 3.05220346774604e-08 -5.866596808346003e-08 -0.0054536727257072926" pbc="T T T"
Al       1.56429556       0.90314476       2.50490041        0      -0.00003393       0.00001985       0.00553102
Al      -0.00000156       1.80629224       5.01337791        1       0.00003349      -0.00001824       0.00552551
N        1.56429556       0.90314476       4.41849749        2      -0.00003556       0.00001908      -0.00553051
N       -0.00000156       1.80629224       1.91001999        3       0.00003602      -0.00002052      -0.00552577
