4
Lattice="3.128588 0.0 0.0 -1.5642939988088433 2.709436998432005 0.0 0.0 0.0 5.016955" Properties=species:S:1:pos:R:3:spacegroup_kinds:I:1:forces:R:3 spacegroup="P 1" unit_cell=conventional occupancy="_JSON {\"0\": {\"Al\": 1}, \"1\": {\"Al\": 1}, \"2\": {\"N\": 1}, \"3\": {\"N\": 1}}" energy=-29.67371940612793 free_energy=-29.67371940612793 stress="-0.002225239295512438 -1.346092062703974e-06 -1.6328057128589535e-08 -1.346092062703974e-06 -0.0022272628266364336 -4.2941707079080516e-08 -1.6328057128589535e-08 -4.2941707079080516e-08 -0.005453637335449457" pbc="T T T"
Al       1.56429556       0.90314476       2.50490041        0      -0.00003488       0.00002003       0.00553226
Al      -0.00000156       1.80629224       5.01337791        1       0.00003397      -0.00001933       0.00552392
N        1.56429556       0.90314476       4.41849749        2      -0.00003586       0.00001997      -0.00553041
N       -0.00000156       1.80629224       1.91001999        3       0.00003670      -0.00002064      -0.00552563
