4
Lattice="3.128588 0.0 0.0 -1.5642939988088433 2.709436998432005 0.0 0.0 0.0 5.016955" Properties=species:S:1:pos:R:3:spacegroup_kinds:I:1:forces:R:3 spacegroup="P 1" unit_cell=conventional occupancy="_JSON {\"0\": {\"Al\": 1}, \"1\": {\"Al\": 1}, \"2\": {\"N\": 1}, \"3\": {\"N\": 1}}" energy=-29.673717498779297 free_energy=-29.673717498779297 stress="-0.002225327305495739 -1.4268750874180114e-06 -2.1792388338326418e-08 -1.4268750874180114e-06 -0.002227427437901497 -2.936202614378658e-09 -2.1792388338326418e-08 -2.936202614378658e-09 -0.005453621968626976" pbc="T T T"
Al       1.56429556       0.90314476       2.50490041        0      -0.00003529       0.00002033       0.00553176
Al      -0.00000156       1.80629224       5.01337791        1       0.00003454      -0.00001994       0.00552425
N        1.56429556       0.90314476       4.41849749        2      -0.00003639       0.00002054      -0.00553101
N       -0.00000156       1.80629224       1.91001999        3       0.00003710      -0.00002088      -0.00552482
