4
Lattice="3.128588 0.0 0.0 -1.5642939988088433 2.709436998432005 0.0 0.0 0.0 5.016955" Properties=species:S:1:pos:R:3:spacegroup_kinds:I:1:momenta:R:3:forces:R:3 spacegroup="P 1" unit_cell=conventional occupancy="_JSON {\"0\": {\"Al\": 1}, \"1\": {\"Al\": 1}, \"2\": {\"N\": 1}, \"3\": {\"N\": 1}}" energy=-29.623743057250977 free_energy=-29.623743057250977 stress="0.004300210624933243 -0.00867260992527008 0.0028819807339459658 -0.00867260992527008 -0.006943604908883572 -0.0044345371425151825 0.0028819807339459658 -0.0044345371425151825 -0.014839217998087406" pbc="T T T"
Al       1.54321202       0.89379620       2.53645984        0      -0.00705505      -0.41529211       0.79444873      -0.25250056       0.39302927      -0.87834454
Al       0.03580902       1.79893950       4.98957805        1       0.09337924      -0.29525120      -0.61191873      -0.16601184       0.14058240       0.62745094
N        1.59619758       0.90645094       4.40111847        2      -0.02189784       1.09350673       0.27120896      -0.08899792      -0.09593876       0.34911287
N       -0.05911261       1.83464209       1.91219262        3      -0.06442638      -0.38296347      -0.45373899       0.50751030      -0.43767285      -0.09821929
