4
Lattice="3.128588 0.0 0.0 -1.5642939988088433 2.709436998432005 0.0 0.0 0.0 5.016955" Properties=species:S:1:pos:R:3:spacegroup_kinds:I:1:momenta:R:3:forces:R:3 spacegroup="P 1" unit_cell=conventional occupancy="_JSON {\"0\": {\"Al\": 1}, \"1\": {\"Al\": 1}, \"2\": {\"N\": 1}, \"3\": {\"N\": 1}}" energy=-29.673717498779297 free_energy=-29.673717498779297 stress="-0.002225379226729274 -1.3176868378650397e-06 -4.60927225276464e-08 -1.3176868378650397e-06 -0.002227339893579483 -8.701399423216571e-08 -4.60927225276464e-08 -8.701399423216571e-08 -0.005453693680465221" pbc="T T T"
Al       1.56429556       0.90314476       2.50490041        0       0.68448204       0.53670047       0.91071479      -0.00003418       0.00002013       0.00553285
Al      -0.00000156       1.80629224       5.01337791        1       0.31075784       0.39520501      -1.87833745       0.00003443      -0.00001758       0.00552355
N        1.56429556       0.90314476       4.41849749        2      -0.23293981      -0.79739853      -0.40745139      -0.00003603       0.00001847      -0.00553001
N       -0.00000156       1.80629224       1.91001999        3      -0.76230006      -0.13450696       1.37507406       0.00003584      -0.00002075      -0.00552584
4
Lattice="3.128588 0.0 0.0 -1.5642939988088433 2.709436998432005 0.0 0.0 0.0 5.016955" Properties=species:S:1:pos:R:3:spacegroup_kinds:I:1:momenta:R:3:forces:R:3 spacegroup="P 1" unit_cell=conventional occupancy="_JSON {\"0\": {\"Al\": 1}, \"1\": {\"Al\": 1}, \"2\": {\"N\": 1}, \"3\": {\"N\": 1}}" energy=-29.43359375 free_energy=-29.43359375 stress="-0.013773651793599129 -0.016446415334939957 0.012948788702487946 -0.016446415334939957 -0.023968812078237534 0.009969733655452728 0.012948788702487946 0.009969733655452728 -0.012059459462761879" pbc="T T T"
Al       1.60246141       0.92231284       2.54150849        0       0.57498196      -0.13491961       1.02882487      -1.31301308      -0.49033445      -0.87831348
Al       0.00328789       1.81111140       4.94718774        1      -0.44725794       0.00118085      -1.07867335      -0.30154151      -0.59423149       1.18011796
N        1.53678588       0.85870779       4.38099594        2       0.14052031      -0.46066751       0.20203869       0.28490752       0.67984402       1.25553656
N       -0.05228245       1.80432669       2.00436660        3      -0.26824432       0.59440626      -0.15219024       1.32964706       0.40472189      -1.55734134
4
Lattice="3.128588 0.0 0.0 -1.5642939988088433 2.709436998432005 0.0 0.0 0.0 5.016955" Properties=species:S:1:pos:R:3:spacegroup_kinds:I:1:momenta:R:3:forces:R:3 spacegroup="P 1" unit_cell=conventional occupancy="_JSON {\"0\": {\"Al\": 1}, \"1\": {\"Al\": 1}, \"2\": {\"N\": 1}, \"3\": {\"N\": 1}}" energy=-29.567258834838867 free_energy=-29.567258834838867 stress="0.012915782630443573 0.0017025397391989827 0.0035794242285192013 0.0017025397391989827 -0.025856737047433853 -0.005368999671190977 0.0035794242285192013 -0.005368999671190977 -0.011435119435191154" pbc="T T T"
Al       1.59598185       0.90138487       2.55101266        0      -0.85003985      -0.64755171      -0.41676273      -0.33522642       0.74370152      -1.26921105
Al      -0.01311800       1.79082859       4.96769656        1      -0.24557026      -0.74327808       1.65595756      -0.18280277      -0.17026860       1.21499610
N        1.52960408       0.86779350       4.41996341        2       0.16413053       0.60763593       0.63654571       0.31887639       0.39321357      -0.09057117
N       -0.00060093       1.87475186       1.90756520        3       0.93147956       0.78319387      -1.87574056       0.19915274      -0.96664655       0.14478612
4
Lattice="3.128588 0.0 0.0 -1.5642939988088433 2.709436998432005 0.0 0.0 0.0 5.016955" Properties=species:S:1:pos:R:3:spacegroup_kinds:I:1:momenta:R:3:forces:R:3 spacegroup="P 1" unit_cell=conventional occupancy="_JSON {\"0\": {\"Al\": 1}, \"1\": {\"Al\": 1}, \"2\": {\"N\": 1}, \"3\": {\"N\": 1}}" energy=-29.406272888183594 free_energy=-29.406272888183594 stress="0.010688633657991886 0.016498280689120293 -0.00816404540091753 0.016498280689120293 -0.009423349983990192 -0.0155539745464921 -0.00816404540091753 -0.0155539745464921 -0.06125416234135628" pbc="T T T"
Al       1.53423929       0.87298461       2.51007453        0      -1.60925361       0.09619161      -1.03262366       0.74608898       1.00298524       0.03482296
Al      -0.01349004       1.78470222       5.05709164        1       0.21561225      -0.04339820       1.72443378       0.02271132       0.40732923      -1.66436911
N        1.55208973       0.92225131       4.42203507        2       0.38659399       0.63935834      -0.93002923       0.04495847      -0.39009678      -0.56986237
N        0.09667398       1.88681817       1.81230438        3       1.00704739      -0.69215180       0.23821907      -0.81375873      -1.02021778       2.19940782
4
Lattice="3.128588 0.0 0.0 -1.5642939988088433 2.709436998432005 0.0 0.0 0.0 5.016955" Properties=species:S:1:pos:R:3:spacegroup_kinds:I:1:momenta:R:3:forces:R:3 spacegroup="P 1" unit_cell=conventional occupancy="_JSON {\"0\": {\"Al\": 1}, \"1\": {\"Al\": 1}, \"2\": {\"N\": 1}, \"3\": {\"N\": 1}}" energy=-29.201902389526367 free_energy=-29.201902389526367 stress="-0.026440788060426712 0.03815515339374542 -0.031382594257593155 0.03815515339374542 -0.004877380561083555 0.0015437753172591329 -0.031382594257593155 0.0015437753172591329 -0.05181995406746864" pbc="T T T"
Al       1.49382403       0.87740191       2.48150487        0      -0.08661650      -0.02748815       0.25595480       2.48428249      -0.46186256       1.22611558
Al      -0.02076738       1.79337851       5.08843296        1       0.00716716       0.60209045      -1.27068255       0.64723480       0.57433361      -2.36004066
N        1.60157222       0.96971685       4.33361321        2       0.49437282       0.53651050      -0.17473356      -0.53882861      -0.70145172       1.74608994
N        0.13924907       1.81421456       1.89535166        3      -0.41492339      -1.11111286       1.18946135      -2.59268832       0.58898079      -0.61216521
4
Lattice="3.128588 0.0 0.0 -1.5642939988088433 2.709436998432005 0.0 0.0 0.0 5.016955" Properties=species:S:1:pos:R:3:spacegroup_kinds:I:1:momenta:R:3:forces:R:3 spacegroup="P 1" unit_cell=conventional occupancy="_JSON {\"0\": {\"Al\": 1}, \"1\": {\"Al\": 1}, \"2\": {\"N\": 1}, \"3\": {\"N\": 1}}" energy=-29.574628829956055 free_energy=-29.574628829956055 stress="-0.023617923259735107 -0.01432129554450512 -0.011127966456115246 -0.01432129554450512 0.015029851347208023 -0.0028546839021146297 -0.011127966456115246 -0.0028546839021146297 -0.014440263621509075" pbc="T T T"
Al       1.53421962       0.88369269       2.53780577        0       1.55944037       0.36820922       1.55971041       0.29264534      -0.24000536      -0.91367602
Al      -0.00048008       1.82107762       4.98837344        1       1.01688556       0.86374298      -2.47525485       0.94369602       0.52251691       0.78486347
N        1.63583966       0.96584652       4.40663187        2      -0.31021878      -0.52489297       1.27117379      -1.15103829      -0.78907204       0.05687889
N       -0.01177519       1.75252282       1.90648733        3      -2.26610707      -0.70705927      -0.35562937      -0.08530317       0.50656068       0.07193364
4
Lattice="3.128588 0.0 0.0 -1.5642939988088433 2.709436998432005 0.0 0.0 0.0 5.016955" Properties=species:S:1:pos:R:3:spacegroup_kinds:I:1:momenta:R:3:forces:R:3 spacegroup="P 1" unit_cell=conventional occupancy="_JSON {\"0\": {\"Al\": 1}, \"1\": {\"Al\": 1}, \"2\": {\"N\": 1}, \"3\": {\"N\": 1}}" energy=-29.3720703125 free_energy=-29.3720703125 stress="-0.0056295557878911495 -0.018719736486673355 0.015849405899643898 -0.018719736486673355 -0.03227275237441063 0.017212167382240295 0.015849405899643898 0.017212167382240295 -0.007298295386135578" pbc="T T T"
Al       1.57072835       0.88046443       2.56331973        0      -0.00039254      -0.37629478      -0.57844027      -1.34386456      -0.44065747      -1.50707507
Al       0.05055070       1.86456080       4.94968570        1       0.52727012       0.77034203       1.04960204      -0.49128687      -1.36434042       1.82584667
N        1.58204802       0.88176659       4.44992392        2      -0.27832225      -1.02263444      -0.55459327       0.15003344       1.16376328      -0.85894883
N       -0.12661083       1.75915453       1.88869868        3      -0.24855527       0.62858715       0.08343147       1.68511796       0.64123440       0.54017746
4
Lattice="3.128588 0.0 0.0 -1.5642939988088433 2.709436998432005 0.0 0.0 0.0 5.016955" Properties=species:S:1:pos:R:3:spacegroup_kinds:I:1:momenta:R:3:forces:R:3 spacegroup="P 1" unit_cell=conventional occupancy="_JSON {\"0\": {\"Al\": 1}, \"1\": {\"Al\": 1}, \"2\": {\"N\": 1}, \"3\": {\"N\": 1}}" energy=-29.596923828125 free_energy=-29.596923828125 stress="0.015976382419466972 -0.004506109282374382 0.006018634885549545 -0.004506109282374382 -0.025499368086457253 -0.004597076214849949 0.006018634885549545 -0.004597076214849949 -0.010014155879616737" pbc="T T T"
Al       1.53284806       0.86390066       2.51395075        0      -1.59464540      -0.16469732      -1.74991348      -0.27820629       0.89915681      -0.15420717
Al       0.06317841       1.83227867       5.00948381        1       0.38440074      -1.80666600       1.59449959      -0.58708489      -0.41271764       0.16725197
N        1.58572478       0.89623782       4.41422575        2       0.14193114       1.12964942      -0.09119169       0.25704092       0.38076875       0.00228208
N       -0.08152102       1.83862419       1.90381446        3       1.06831354       0.84171384       0.24660560       0.60825038      -0.86720777      -0.01532683
4
Lattice="3.128588 0.0 0.0 -1.5642939988088433 2.709436998432005 0.0 0.0 0.0 5.016955" Properties=species:S:1:pos:R:3:spacegroup_kinds:I:1:momenta:R:3:forces:R:3 spacegroup="P 1" unit_cell=conventional occupancy="_JSON {\"0\": {\"Al\": 1}, \"1\": {\"Al\": 1}, \"2\": {\"N\": 1}, \"3\": {\"N\": 1}}" energy=-29.462553024291992 free_energy=-29.462553024291992 stress="-0.00569715304300189 0.010849494487047195 -0.003906590864062309 0.010849494487047195 -0.01913401484489441 -0.012703179381787777 -0.003906590864062309 -0.012703179381787777 -0.011871465481817722" pbc="T T T"
Al       1.48347329       0.88264393       2.44527929        0      -0.30454467       1.01149512      -0.60004468       0.88393086       0.95768547       1.70777035
Al       0.06164412       1.77681259       5.07306071        1      -0.86715237      -0.75617455       0.43048869      -0.30080605       0.71655339      -1.72280002
N        1.61717707       0.94947184       4.40498428        2       0.38645852       0.04830161       0.18623325      -0.07234040      -0.67486000       0.48910728
N       -0.01486929       1.85626150       1.92266700        3       0.78523851      -0.30362227      -0.01667730      -0.51078451      -0.99937922      -0.47407728
4
Lattice="3.128588 0.0 0.0 -1.5642939988088433 2.709436998432005 0.0 0.0 0.0 5.016955" Properties=species:S:1:pos:R:3:spacegroup_kinds:I:1:momenta:R:3:forces:R:3 spacegroup="P 1" unit_cell=conventional occupancy="_JSON {\"0\": {\"Al\": 1}, \"1\": {\"Al\": 1}, \"2\": {\"N\": 1}, \"3\": {\"N\": 1}}" energy=-29.51875114440918 free_energy=-29.51875114440918 stress="-0.023370997980237007 0.006539860740303993 -0.01609802059829235 0.006539860740303993 0.006697723176330328 -0.0004823821072932333 -0.01609802059829235 -0.0004823821072932333 -0.022161126136779785" pbc="T T T"
Al       1.50607640       0.94974318       2.46463698        0       1.15921346       0.62635285       1.50689948       1.24247098      -0.60704643       1.15697372
Al       0.01335473       1.75088038       5.06242872        1      -0.91112034       0.14825249      -0.88962652       0.51474255       0.69610244      -1.43088925
N        1.62637954       0.90489624       4.42127858        2      -0.14223521      -0.64065043       0.21498369      -0.71771485      -0.51823956      -0.07984734
N        0.02538008       1.82158363       1.88963022        3      -0.10585797      -0.13395496      -0.83225674      -1.03949904       0.42918330       0.35376298
4
Lattice="3.128588 0.0 0.0 -1.5642939988088433 2.709436998432005 0.0 0.0 0.0 5.016955" Properties=species:S:1:pos:R:3:spacegroup_kinds:I:1:momenta:R:3:forces:R:3 spacegroup="P 1" unit_cell=conventional occupancy="_JSON {\"0\": {\"Al\": 1}, \"1\": {\"Al\": 1}, \"2\": {\"N\": 1}, \"3\": {\"N\": 1}}" energy=-29.605009078979492 free_energy=-29.605009078979492 stress="0.001595911686308682 -0.006785936653614044 -0.003095191903412342 -0.006785936653614044 0.0017804775852710009 0.0017242415342479944 -0.003095191903412342 0.0017242415342479944 -0.023114055395126343" pbc="T T T"
Al       1.56693925       0.93861032       2.54470911        0       1.44875272      -0.98943799       1.48437367      -0.01659421      -0.29131514      -1.20301855
Al      -0.01304569       1.78057344       4.99752449        1       0.01689755       1.11025020      -1.70730006       0.38438332       0.02358344       0.50762796
N        1.58384204       0.87104973       4.42155572        2      -0.67927407      -0.02705007      -0.19037182      -0.39236575       0.15177858      -0.39793023
N        0.00122211       1.81989271       1.85992054        3      -0.78637623      -0.09376218       0.41329807       0.02457650       0.11595295       1.09332085
4
Lattice="3.128588 0.0 0.0 -1.5642939988088433 2.709436998432005 0.0 0.0 0.0 5.016955" Properties=species:S:1:pos:R:3:spacegroup_kinds:I:1:momenta:R:3:forces:R:3 spacegroup="P 1" unit_cell=conventional occupancy="_JSON {\"0\": {\"Al\": 1}, \"1\": {\"Al\": 1}, \"2\": {\"N\": 1}, \"3\": {\"N\": 1}}" energy=-29.470205307006836 free_energy=-29.470205307006836 stress="0.0032031929586082697 -0.017801417037844658 0.011838344857096672 -0.017801417037844658 -0.04134920611977577 0.007359852083027363 0.011838344857096672 0.007359852083027363 -0.0051601724699139595" pbc="T T T"
Al       1.62755626       0.89950079       2.54516751        0       1.04970702      -0.99981974      -0.80202968      -1.41064763       0.15933415      -0.91779184
Al      -0.00757058       1.81703573       4.95606285        1      -0.03757974       0.11959860      -0.16512710      -0.26242802      -0.84351647       1.41445792
N        1.52756237       0.85151200       4.42065482        2      -0.42752196       0.29023041      -0.07965748       0.31765914       0.98894727      -0.00115472
N       -0.06966663       1.84442107       1.93994535        3      -0.58460537       0.58999062       1.04681422       1.35541654      -0.30476499      -0.49551132
4
Lattice="3.128588 0.0 0.0 -1.5642939988088433 2.709436998432005 0.0 0.0 0.0 5.016955" Properties=species:S:1:pos:R:3:spacegroup_kinds:I:1:momenta:R:3:forces:R:3 spacegroup="P 1" unit_cell=conventional occupancy="_JSON {\"0\": {\"Al\": 1}, \"1\": {\"Al\": 1}, \"2\": {\"N\": 1}, \"3\": {\"N\": 1}}" energy=-29.452987670898438 free_energy=-29.452987670898438 stress="-0.013224747031927109 -0.0237501859664917 0.007911442779004574 -0.0237501859664917 -0.04793175309896469 -0.007333328016102314 0.007911442779004574 -0.007333328016102314 0.028632808476686478" pbc="T T T"
Al       1.63184036       0.85684024       2.46693548        0      -0.97589035      -0.55899642      -1.34838342      -1.39009774       1.11026359       1.17304146
Al      -0.02377743       1.82170281       4.98999598        1      -0.28018784       0.45883495       1.28013487      -0.08532339       0.08283532       0.34697220
N        1.52792698       0.92957748       4.44479006        2       0.11446409       0.97873282       0.08012590       0.22035921      -0.17398831       0.05598567
N       -0.04718863       1.83921504       2.00086009        3       1.14161404      -0.87857144      -0.01187739       1.25506175      -1.01911044      -1.57599926
4
Lattice="3.128588 0.0 0.0 -1.5642939988088433 2.709436998432005 0.0 0.0 0.0 5.016955" Properties=species:S:1:pos:R:3:spacegroup_kinds:I:1:momenta:R:3:forces:R:3 spacegroup="P 1" unit_cell=conventional occupancy="_JSON {\"0\": {\"Al\": 1}, \"1\": {\"Al\": 1}, \"2\": {\"N\": 1}, \"3\": {\"N\": 1}}" energy=-29.53631591796875 free_energy=-29.53631591796875 stress="-0.019857725128531456 0.013829092495143414 -0.005717369262129068 0.013829092495143414 -0.0031640955712646246 -0.001671027042903006 -0.005717369262129068 -0.001671027042903006 -0.0062606907449662685" pbc="T T T"
Al       1.56291509       0.86348345       2.43836897        0      -1.44558664       0.38889213       0.34074987       0.67286074       0.11609270       1.45909691
Al      -0.01834140       1.83613135       5.05736566        1       0.19731475      -0.00921611       1.04742084       0.06595168       0.15003726      -1.19267392
N        1.54726692       0.95741150       4.47045645        2      -0.01024003       0.05685105       0.14844041       0.09761482      -0.44421005      -0.65174830
N        0.05576966       1.77068661       1.90062726        3       1.25851188      -0.43652715      -1.53661108      -0.83642709       0.17808029       0.38532585
4
Lattice="3.128588 0.0 0.0 -1.5642939988088433 2.709436998432005 0.0 0.0 0.0 5.016955" Properties=species:S:1:pos:R:3:spacegroup_kinds:I:1:momenta:R:3:forces:R:3 spacegroup="P 1" unit_cell=conventional occupancy="_JSON {\"0\": {\"Al\": 1}, \"1\": {\"Al\": 1}, \"2\": {\"N\": 1}, \"3\": {\"N\": 1}}" energy=-29.5310001373291 free_energy=-29.5310001373291 stress="-0.018293891102075577 0.015707479789853096 -0.011607756838202477 0.015707479789853096 0.003147958777844906 0.0046055931597948074 -0.011607756838202477 0.0046055931597948074 -0.01725887507200241" pbc="T T T"
Al       1.54701080       0.87273546       2.46070915        0       0.71855791      -0.11584325       0.49435322       1.07476759      -0.28505585       1.06925464
Al      -0.01761629       1.84389392       5.05391116        1       0.19346325       0.17720446      -0.69190077       0.23187506      -0.07941587      -1.16825259
N        1.56395351       0.94331126       4.45961399        2       0.32487509      -0.12409461      -0.51346285      -0.11546978      -0.20503610      -0.72920084
N        0.06831344       1.75176754       1.87546339        3      -1.23689627       0.06273332       0.71101042      -1.19117284       0.56950796       0.82819855
4
Lattice="3.128588 0.0 0.0 -1.5642939988088433 2.709436998432005 0.0 0.0 0.0 5.016955" Properties=species:S:1:pos:R:3:spacegroup_kinds:I:1:momenta:R:3:forces:R:3 spacegroup="P 1" unit_cell=conventional occupancy="_JSON {\"0\": {\"Al\": 1}, \"1\": {\"Al\": 1}, \"2\": {\"N\": 1}, \"3\": {\"N\": 1}}" energy=-29.61321258544922 free_energy=-29.61321258544922 stress="-0.008381838910281658 -0.004276697523891926 0.0054929666221141815 -0.004276697523891926 -0.013936897739768028 0.0014804488746449351 0.0054929666221141815 0.0014804488746449351 0.012475362047553062" pbc="T T T"
Al       1.57767914       0.87033377       2.48321561        0       0.42145808      -0.10086122       0.75449331      -0.50599515       0.14215147       0.64868444
Al       0.00878677       1.84488740       5.00616579        1       0.94842491       0.04829729      -0.67234580      -0.28190970      -0.37569746       0.05942540
N        1.54733740       0.91884310       4.41695256        2      -0.50233575      -0.06173946      -0.86681648       0.26756781       0.16352445       0.34766680
N       -0.02491947       1.77881435       1.96659669        3      -0.86754725       0.11430335       0.78466897       0.52033710       0.07002143      -1.05577660
4
Lattice="3.128588 0.0 0.0 -1.5642939988088433 2.709436998432005 0.0 0.0 0.0 5.016955" Properties=species:S:1:pos:R:3:spacegroup_kinds:I:1:momenta:R:3:forces:R:3 spacegroup="P 1" unit_cell=conventional occupancy="_JSON {\"0\": {\"Al\": 1}, \"1\": {\"Al\": 1}, \"2\": {\"N\": 1}, \"3\": {\"N\": 1}}" energy=-29.557838439941406 free_energy=-29.557838439941406 stress="-0.016363762319087982 -0.0029478040523827076 0.012903720140457153 -0.0029478040523827076 -0.00620741443708539 0.0015376950614154339 0.012903720140457153 0.0015376950614154339 -0.002714720321819186" pbc="T T T"
Al       1.59068813       0.88023423       2.52274583        0      -0.41625691       0.17887028       0.33160872      -0.90883982      -0.14030816      -0.36867416
Al       0.01872288       1.83477378       4.97781994        1       0.14974033      -0.20763079      -0.17578536      -0.72829843      -0.10046577       0.72652382
N        1.52039169       0.92489989       4.39464374        2       0.19754298       0.25939889       0.47781797       0.72476065      -0.09604879       0.71573991
N       -0.04216855       1.77342033       1.96745696        3       0.06897358      -0.23063843      -0.63364132       0.91237754       0.33682269      -1.07358980
4
Lattice="3.128588 0.0 0.0 -1.5642939988088433 2.709436998432005 0.0 0.0 0.0 5.016955" Properties=species:S:1:pos:R:3:spacegroup_kinds:I:1:momenta:R:3:forces:R:3 spacegroup="P 1" unit_cell=conventional occupancy="_JSON {\"0\": {\"Al\": 1}, \"1\": {\"Al\": 1}, \"2\": {\"N\": 1}, \"3\": {\"N\": 1}}" energy=-29.62111473083496 free_energy=-29.62111473083496 stress="-0.021500788629055023 0.005276469048112631 -0.003267406951636076 0.005276469048112631 0.010657653212547302 0.0019249425968155265 -0.003267406951636076 0.0019249425968155265 -0.0015898682177066803" pbc="T T T"
Al       1.54767648       0.89587759       2.50832860        0      -0.85809937       0.46896600      -1.00002918       0.39160401      -0.39029080      -0.15032718
Al       0.00665801       1.82067513       5.00342494        1      -0.72966932      -0.11082698       1.46536643      -0.00949794       0.22696722       0.34862977
N        1.57185926       0.94293294       4.45440721        2       0.62349873      -0.37686479       0.64593170      -0.01969780      -0.43335068      -0.83890057
N        0.01256042       1.75229424       1.88600529        3       0.96426994       0.01872572      -1.11126894      -0.36240825       0.59667450       0.64059818
4
Lattice="3.128588 0.0 0.0 -1.5642939988088433 2.709436998432005 0.0 0.0 0.0 5.016955" Properties=species:S:1:pos:R:3:spacegroup_kinds:I:1:momenta:R:3:forces:R:3 spacegroup="P 1" unit_cell=conventional occupancy="_JSON {\"0\": {\"Al\": 1}, \"1\": {\"Al\": 1}, \"2\": {\"N\": 1}, \"3\": {\"N\": 1}}" energy=-29.520854949951172 free_energy=-29.520854949951172 stress="-0.01404737588018179 0.011820953339338303 -0.014255579560995102 0.011820953339338303 -0.005614550784230232 0.0093615110963583 -0.014255579560995102 0.0093615110963583 -0.01957111805677414" pbc="T T T"
Al       1.52999431       0.91403917       2.46474577        0       0.09545170      -0.23101195      -1.18071334       1.21875203      -0.63577121       0.99289888
Al      -0.00890655       1.82180730       5.05208961        1       0.31216943      -0.10747465       0.45537683       0.39472643      -0.38378531      -1.12710357
N        1.59437710       0.88605551       4.45928983        2      -0.04799005      -0.53350320      -0.20523310      -0.40810448       0.35578987      -0.79021442
N        0.05384447       1.77207215       1.87144998        3      -0.35963115       0.87198977       0.93056968      -1.20537388       0.66376662       0.92441928
4
Lattice="3.128588 0.0 0.0 -1.5642939988088433 2.709436998432005 0.0 0.0 0.0 5.016955" Properties=species:S:1:pos:R:3:spacegroup_kinds:I:1:momenta:R:3:forces:R:3 spacegroup="P 1" unit_cell=conventional occupancy="_JSON {\"0\": {\"Al\": 1}, \"1\": {\"Al\": 1}, \"2\": {\"N\": 1}, \"3\": {\"N\": 1}}" energy=-29.618785858154297 free_energy=-29.618785858154297 stress="0.010117728263139725 -0.0018220682395622134 -0.0018731338204815984 -0.0018220682395622134 -0.024783097207546234 0.004591200966387987 -0.0018731338204815984 0.004591200966387987 2.6601659556035884e-05" pbc="T T T"
Al       1.53818034       0.90928018       2.47247636        0       0.23228470      -0.27447350       1.41733239       0.21200730       0.18702224       0.85530043
Al       0.01802693       1.81430741       5.03506511        1       0.60360875      -0.42930282      -1.11140708       0.03760328      -0.69444215      -0.55142546
N        1.59518012       0.85128045       4.42414641        2       0.09084604       0.02420727      -0.77345514      -0.19470280       0.84070575       0.01228862
N       -0.01452987       1.83034431       1.92467360        3      -0.92673954       0.67956902       0.46752981      -0.05490776      -0.33328608      -0.31616348
4
Lattice="3.128588 0.0 0.0 -1.5642939988088433 2.709436998432005 0.0 0.0 0.0 5.016955" Properties=species:S:1:pos:R:3:spacegroup_kinds:I:1:momenta:R:3:forces:R:3 spacegroup="P 1" unit_cell=conventional occupancy="_JSON {\"0\": {\"Al\": 1}, \"1\": {\"Al\": 1}, \"2\": {\"N\": 1}, \"3\": {\"N\": 1}}" energy=-29.623743057250977 free_energy=-29.623743057250977 stress="0.004300210624933243 -0.00867260992527008 0.0028819807339459658 -0.00867260992527008 -0.006943604908883572 -0.0044345371425151825 0.0028819807339459658 -0.0044345371425151825 -0.014839217998087406" pbc="T T T"
Al       1.54321202       0.89379620       2.53645984        0      -0.00705505      -0.41529211       0.79444873      -0.25250056       0.39302927      -0.87834454
Al       0.03580902       1.79893950       4.98957805        1       0.09337924      -0.29525120      -0.61191873      -0.16601184       0.14058240       0.62745094
N        1.59619758       0.90645094       4.40111847        2      -0.02189784       1.09350673       0.27120896      -0.08899792      -0.09593876       0.34911287
N       -0.05911261       1.83464209       1.91219262        3      -0.06442638      -0.38296347      -0.45373899       0.50751030      -0.43767285      -0.09821929
