4
Lattice="3.128588 0.0 0.0 -1.5642939988088433 2.709436998432005 0.0 0.0 0.0 5.016955" Properties=species:S:1:pos:R:3:spacegroup_kinds:I:1:forces:R:3 spacegroup="P 1" unit_cell=conventional occupancy="_JSON {\"0\": {\"Al\": 1}, \"1\": {\"Al\": 1}, \"2\": {\"N\": 1}, \"3\": {\"N\": 1}}" energy=-29.673717498779297 free_energy=-29.673717498779297 stress="-0.002225379226729274 -1.3176868378650397e-06 -4.60927225276464e-08 -1.3176868378650397e-06 -0.002227339893579483 -8.701399423216571e-08 -4.60927225276464e-08 -8.701399423216571e-08 -0.005453693680465221" pbc="T T T"
Al       1.56429556       0.90314476       2.50490041        0      -0.00003418       0.00002013       0.00553285
Al      -0.00000156       1.80629224       5.01337791        1       0.00003443      -0.00001758       0.00552355
N        1.56429556       0.90314476       4.41849749        2      -0.00003603       0.00001847      -0.00553001
N       -0.00000156       1.80629224       1.91001999        3       0.00003584      -0.00002075      -0.00552584
