13
Lattice="7.26870274 0.0 0.0 3.634351370000001 6.294881225397555 0.0 3.634351370000001 2.0982937417991856 5.934870934989993" Properties=species:S:1:pos:R:3:spacegroup_kinds:I:1:momenta:R:3:forces:R:3 spacegroup="P 1" unit_cell=conventional occupancy="_JSON {\"0\": {\"Li\": 1}, \"1\": {\"Li\": 1}, \"2\": {\"Li\": 1}, \"3\": {\"Li\": 1}, \"4\": {\"Li\": 1}, \"5\": {\"Li\": 1}, \"6\": {\"P\": 1}, \"7\": {\"S\": 1}, \"8\": {\"S\": 1}, \"9\": {\"S\": 1}, \"10\": {\"S\": 1}, \"11\": {\"S\": 1}, \"12\": {\"Cl\": 1}}" energy=-53.683349609375 free_energy=-53.683349609375 stress="0.0075554633513092995 0.002774764783680439 0.002115011913701892 0.002774764783680439 0.006546058226376772 0.0013735581887885928 0.002115011913701892 0.0013735581887885928 0.010213913396000862" pbc="T T T"
Li       8.75122380       7.13085135       3.52630841        0      -0.67624506       0.08296155      -0.45499290      -0.04176503       0.03270221      -0.17528579
Li      12.31421474       6.76259130       6.33128833        1      -0.38272182      -0.10444647       0.69799954       0.09755139      -0.26299435      -0.04919458
Li       9.14376058       5.97876912       5.92637974        2      -0.00236932       0.06963519       0.19766522      -0.32019126      -0.17213649       0.21906580
Li      12.02178808       7.03732425       2.43375901        3      -1.12617813       0.06542748       0.06198232       0.09374376      -0.09192683      -0.01106806
Li      11.49863634       3.93967539       4.13841985        4       0.79989387       0.04527435       0.32059451      -0.19932808       0.18161991       0.08907330
Li      10.37942375       8.41657454       5.24655767        5       0.07668250       0.11167029      -0.18128940      -0.13591021       0.03160150       0.27837223
P        7.24655007       4.17400122       3.02867301        6      -0.59926116      -1.40357193       0.64318638      -0.68281162       0.08168229      -0.38669774
S        7.21195548       6.02769730       2.01509676        7       0.39820640       2.33494876      -0.89484074      -0.05459082      -0.15177925       0.10774951
S        8.97349897       3.26419314       2.53011216        8       1.44607385      -0.01045329      -0.17402254       0.32398173      -0.25765455      -0.28640521
S        5.57807246       3.07858221       2.25744436        9       0.43599183      -0.97575212       0.33528310       0.57476461       0.20518459       0.66828787
S        7.10372087       4.44177524       5.06392626       10       0.04188898      -0.83041916       0.10253615      -0.11959356       0.18010728      -0.24529243
S       10.80724172       6.28929485       4.39596127       11       1.09899956      -0.73435703       0.19999023       0.32398939       0.08663011      -0.00940452
Cl       0.55066511      -0.29175830      -0.17655713       12      -1.51096148       1.34908240      -0.85409190       0.14015974       0.13696356      -0.19920030
