13
Lattice="7.26870274 0.0 0.0 3.634351370000001 6.294881225397555 0.0 3.634351370000001 2.0982937417991856 5.934870934989993" Properties=species:S:1:pos:R:3:spacegroup_kinds:I:1:momenta:R:3:forces:R:3 spacegroup="P 1" unit_cell=conventional occupancy="_JSON {\"0\": {\"Li\": 1}, \"1\": {\"Li\": 1}, \"2\": {\"Li\": 1}, \"3\": {\"Li\": 1}, \"4\": {\"Li\": 1}, \"5\": {\"Li\": 1}, \"6\": {\"P\": 1}, \"7\": {\"S\": 1}, \"8\": {\"S\": 1}, \"9\": {\"S\": 1}, \"10\": {\"S\": 1}, \"11\": {\"S\": 1}, \"12\": {\"Cl\": 1}}" energy=-53.3634147644043 free_energy=-53.3634147644043 stress="-0.0007942070951685309 -2.3971605855876987e-07 -1.506626858827076e-07 -2.3971605855876987e-07 -0.0007939203060232103 -1.0076857392959937e-07 -1.506626858827076e-07 -1.0076857392959937e-07 -0.0007939185597933829" pbc="T T T"
Li       9.25387995       7.24703237       3.10460814        0       0.61759454       0.12777238       0.52543789       0.00422575      -0.00243449       0.00344765
Li      12.55222827       5.34273008       5.79769826        1       0.93521627       0.77395973      -0.49991849      -0.00421112       0.00243320      -0.00344144
Li       9.25387995       5.34273008       5.79769826        2       0.34956142      -0.19310427      -0.01541521       0.00422546       0.00243911      -0.00344736
Li      12.55222827       7.24703237       3.10460814        3       0.00351499       0.06262631       0.65326315      -0.00421245      -0.00243122       0.00344167
Li      10.90305411       4.39057894       3.10460814        4       0.20672960       0.02694940       0.16385970       0.00000246       0.00487635       0.00344871
Li      10.90305411       8.19918351       5.79769826        5       0.02567056       0.57897950      -0.03069924       0.00000185      -0.00486378      -0.00344170
P        7.26870274       4.19658748       2.96743547        6      -0.32125725      -1.17979168      -2.20485076       0.00008563       0.00004594       0.00003627
S        7.26870637       6.13578650       2.28182731        7      -0.22883769       0.55226995      -0.23801989      -0.00001844      -0.01090910       0.00384757
S        8.94810016       3.22699113       2.28182731        8       1.55518213      -1.58888104      -0.02898362      -0.00945839       0.00544021       0.00384770
S        5.58931258       3.22699113       2.28182731        9      -0.84076643       1.08393231       1.77292868       0.00937799       0.00541347       0.00383027
S        7.26870637       4.19658958       5.02426588       10      -0.23871757      -0.25427552      -0.61502766      -0.00001859      -0.00000959      -0.01156992
S       10.90305411       6.29488123       4.45115320       11      -2.54207087      -0.63298892       0.20988232      -0.00000109      -0.00000166      -0.00000042
Cl       0.00000000       0.00000000       0.00000000       12       0.47818031       0.64255185       0.30754313       0.00000095       0.00000156       0.00000101
13
Lattice="7.26870274 0.0 0.0 3.634351370000001 6.294881225397555 0.0 3.634351370000001 2.0982937417991856 5.934870934989993" Properties=species:S:1:pos:R:3:spacegroup_kinds:I:1:momenta:R:3:forces:R:3 spacegroup="P 1" unit_cell=conventional occupancy="_JSON {\"0\": {\"Li\": 1}, \"1\": {\"Li\": 1}, \"2\": {\"Li\": 1}, \"3\": {\"Li\": 1}, \"4\": {\"Li\": 1}, \"5\": {\"Li\": 1}, \"6\": {\"P\": 1}, \"7\": {\"S\": 1}, \"8\": {\"S\": 1}, \"9\": {\"S\": 1}, \"10\": {\"S\": 1}, \"11\": {\"S\": 1}, \"12\": {\"Cl\": 1}}" energy=-53.18207931518555 free_energy=-53.18207931518555 stress="0.0014753018040210009 -0.0025962672661989927 -0.0009542593033984303 -0.0025962672661989927 -0.0023267571814358234 0.002162602497264743 -0.0009542593033984303 0.002162602497264743 -0.0008748267428018153" pbc="T T T"
Li       9.28435065       7.33940882       3.21352286        0      -0.04378123       0.59059912       0.38651975      -0.40249839      -0.04868623      -0.16928080
Li      12.68534889       5.50383629       5.70265782        1       0.52272237       0.76573010      -0.47560652      -0.03771933       0.07949531       0.23459944
Li       9.29994520       5.33472420       5.85912768        2       0.05158312       0.06087746       0.39081966      -0.25841239      -0.18798007      -0.06618971
Li      12.51393477       7.26910464       3.22438964        3      -0.17547233       0.17148934       0.45035367       0.19508606      -0.02690620      -0.15936911
Li      10.93997592       4.36881676       3.14846685        4       0.14344119      -0.30836401       0.21829011      -0.25582325       0.04196057       0.05838799
Li      10.88685478       8.29087079       5.79810131        5      -0.49091337       0.22490081      -0.04728835      -0.05873328      -0.39760894       0.00459375
P        7.26372164       4.17442358       2.89905555        6       0.36890646      -0.11608454      -0.85933215       1.15233719       0.40075973       0.76477587
S        7.25914555       6.13609015       2.28054893        7      -0.07219591      -0.48268920       0.08806804       0.08043157      -0.00573041       0.03486525
S        9.01744207       3.18282168       2.28414821        8       1.82759031      -0.43627683      -0.23768890      -0.79508346       0.30481610      -0.11939247
S        5.55885805       3.28194247       2.30972639        9      -0.73109087       1.05207664       0.25248505      -0.21776606      -0.57267654      -0.39397490
S        7.26080373       4.17614176       4.99083816       10      -0.06382128      -0.55353717      -0.75307418       0.17704651       0.19058011      -0.34521967
S       10.82304028       6.25278339       4.45558831       11      -1.95612183      -1.00561622      -0.07325086       0.51390159       0.35240144       0.29399332
Cl       0.01960093      -0.00040428       0.01341188       12       0.61915338       0.03689451       0.65970471      -0.09276675      -0.13042484      -0.13778898
13
Lattice="7.26870274 0.0 0.0 3.634351370000001 6.294881225397555 0.0 3.634351370000001 2.0982937417991856 5.934870934989993" Properties=species:S:1:pos:R:3:spacegroup_kinds:I:1:momenta:R:3:forces:R:3 spacegroup="P 1" unit_cell=conventional occupancy="_JSON {\"0\": {\"Li\": 1}, \"1\": {\"Li\": 1}, \"2\": {\"Li\": 1}, \"3\": {\"Li\": 1}, \"4\": {\"Li\": 1}, \"5\": {\"Li\": 1}, \"6\": {\"P\": 1}, \"7\": {\"S\": 1}, \"8\": {\"S\": 1}, \"9\": {\"S\": 1}, \"10\": {\"S\": 1}, \"11\": {\"S\": 1}, \"12\": {\"Cl\": 1}}" energy=-53.113197326660156 free_energy=-53.113197326660156 stress="0.0058139897882938385 -0.002247604774311185 -0.0005702857160940766 -0.002247604774311185 -0.002956811338663101 0.0030550407245755196 -0.0005702857160940766 0.0030550407245755196 -0.003516319440677762" pbc="T T T"
Li       9.23049293       7.40877208       3.26928365        0      -0.55531380       0.03282424       0.30111977      -0.35666668      -0.20605221      -0.09190324
Li      12.73034482       5.61712708       5.62663908        1       0.13729830       0.61546326      -0.05709885       0.07558102      -0.01192559       0.36546743
Li       9.26103343       5.35441229       5.86189866        2      -0.80442330       0.33133837      -0.07282742      -0.31993085      -0.22912577       0.07335786
Li      12.52208334       7.30830336       3.26749540        3       0.17701527       0.46911243      -0.09230455       0.08966386      -0.10572297      -0.16108099
Li      10.97210253       4.35583719       3.15062262        4      -0.03964744       0.00711457      -0.11594440      -0.41272539       0.14149347       0.11158840
Li      10.78214097       8.26314139       5.76148877        5      -0.57313448      -0.48829028      -0.45817942      -0.12841469      -0.32862672       0.13608196
P        7.30235120       4.18132707       2.89333478        6       1.12221310       0.37591396       0.17316471       0.64767355       0.05920058       0.31880188
S        7.24535609       6.13611440       2.27715412        7      -0.19172762       0.30118728      -0.42760836       0.14132310       0.07164770      -0.03242034
S        9.05086182       3.17365099       2.26398080        8       0.15154311       0.56125679      -0.18293456      -0.91554958       0.44549593      -0.17014535
S        5.54457084       3.28867450       2.33215821        9       0.11262840      -0.51664223       0.73517266       0.38983011      -0.39918870      -0.49949178
S        7.27097833       4.14815754       4.95594178       10       0.14319943      -0.60735964      -0.89246331       0.17153296       0.26870453       0.10033508
S       10.77484522       6.22655680       4.46176807       11      -0.56601824      -0.44443641       0.20631121       0.65593266       0.55832005       0.09852532
Cl       0.03750526       0.00595818       0.04670832       12       0.88636725      -0.63748232       0.88359250      -0.03825010      -0.26422039      -0.24911618
13
Lattice="7.26870274 0.0 0.0 3.634351370000001 6.294881225397555 0.0 3.634351370000001 2.0982937417991856 5.934870934989993" Properties=species:S:1:pos:R:3:spacegroup_kinds:I:1:momenta:R:3:forces:R:3 spacegroup="P 1" unit_cell=conventional occupancy="_JSON {\"0\": {\"Li\": 1}, \"1\": {\"Li\": 1}, \"2\": {\"Li\": 1}, \"3\": {\"Li\": 1}, \"4\": {\"Li\": 1}, \"5\": {\"Li\": 1}, \"6\": {\"P\": 1}, \"7\": {\"S\": 1}, \"8\": {\"S\": 1}, \"9\": {\"S\": 1}, \"10\": {\"S\": 1}, \"11\": {\"S\": 1}, \"12\": {\"Cl\": 1}}" energy=-53.19192886352539 free_energy=-53.19192886352539 stress="0.003653657855466008 2.387555650784634e-05 -0.0013945333193987608 2.387555650784634e-05 -0.0037416687700897455 -0.0006462816381826997 -0.0013945333193987608 -0.0006462816381826997 -0.005740010179579258" pbc="T T T"
Li       9.16259472       7.41475857       3.32762454        0      -0.29166488      -0.00219285       0.61630857      -0.32775497      -0.23698479      -0.07089781
Li      12.76122090       5.70575716       5.64210936        1       0.26888060       0.53793064       0.21780087       0.11980353      -0.00958031       0.25921109
Li       9.10278755       5.37126523       5.88021505        2      -1.27411914      -0.14139352       0.18709891       0.12448221       0.08950399      -0.04936517
Li      12.55777845       7.35495970       3.21128430        3       0.32219843       0.24676138      -0.57243576      -0.10419317      -0.35919425       0.02276316
Li      10.96528467       4.38303682       3.15339164        4      -0.24024735       0.06809039       0.06038175      -0.27850461       0.09551015       0.02559072
Li      10.70926789       8.15350808       5.69771645        5      -0.30985420      -0.68083973      -0.29770448      -0.13425347       0.29666540       0.41051534
P        7.34326923       4.18153068       2.89555109        6       1.61662985      -0.25915630       0.44266953      -0.41996560       0.55300993       0.12766990
S        7.22689834       6.14123167       2.24937248        7      -0.35021488      -0.15659177      -0.52540869       0.28295645      -0.10275187      -0.01710662
S        9.01326697       3.19348652       2.25046406        8      -1.11396735       0.43384044      -0.66607974      -0.03950536       0.22620359      -0.42008877
S        5.57220695       3.27298651       2.35563745        9       1.11844375      -0.81516995       0.19523524       0.29543996      -0.31527796      -0.46712923
S        7.28784676       4.14851104       4.93534296       10       0.21885285       0.61135312      -0.10061913       0.00001124       0.01861306       0.51116937
S       10.77317025       6.24237335       4.48514610       11      -0.24730479       1.00945078       0.84000289       0.43938515       0.15899026      -0.03845968
Cl       0.06009381      -0.03250496       0.06298564       12       0.28236709      -0.85208262      -0.39724994       0.04209856      -0.41470712      -0.29387230
13
Lattice="7.26870274 0.0 0.0 3.634351370000001 6.294881225397555 0.0 3.634351370000001 2.0982937417991856 5.934870934989993" Properties=species:S:1:pos:R:3:spacegroup_kinds:I:1:momenta:R:3:forces:R:3 spacegroup="P 1" unit_cell=conventional occupancy="_JSON {\"0\": {\"Li\": 1}, \"1\": {\"Li\": 1}, \"2\": {\"Li\": 1}, \"3\": {\"Li\": 1}, \"4\": {\"Li\": 1}, \"5\": {\"Li\": 1}, \"6\": {\"P\": 1}, \"7\": {\"S\": 1}, \"8\": {\"S\": 1}, \"9\": {\"S\": 1}, \"10\": {\"S\": 1}, \"11\": {\"S\": 1}, \"12\": {\"Cl\": 1}}" energy=-53.03641891479492 free_energy=-53.03641891479492 stress="0.0006893675890751183 0.0027413482312113047 -0.0018909238278865814 0.0027413482312113047 -0.008187001571059227 -0.00375570822507143 -0.0018909238278865814 -0.00375570822507143 -0.006091141141951084" pbc="T T T"
Li       9.05879290       7.35715388       3.44865349        0      -0.96642516      -0.09037543       0.53742601      -0.32045421       0.07103188      -0.16814855
Li      12.89388483       5.80450128       5.66753927        1       0.83199501       0.59687023       0.06710035      -0.18689162       0.22276032       0.03387716
Li       8.91349987       5.36792449       5.86816590        2      -0.84980119      -0.01984016       0.06735419       0.98155153       0.65855742       0.23705617
Li      12.60043608       7.35086773       3.05726696        3       0.15662154      -0.24666978      -1.06959647      -0.44634676      -0.49676487       0.26496616
Li      10.93273439       4.34389491       3.10317838        4      -0.18655969      -0.21119463      -0.58921960      -0.10978155       0.41750738       0.24698184
Li      10.63827650       8.07282585       5.70208553        5      -0.34950989       0.02609011       0.14163381      -0.13913164       0.88265777       0.66710746
P        7.38052012       4.19694384       2.91881774        6       0.21411795       0.61352483       0.85599790      -1.70846486       0.26309836       0.00195716
S        7.22527773       6.12237684       2.23952096        7       0.59583510      -0.62718249       0.00416995       0.44495350       0.18162292      -0.07909682
S        8.97095826       3.21504508       2.20633469        8      -0.92868359       0.75448172      -1.07900180       0.67602736      -0.04904418      -0.49515742
S        5.59388668       3.24789939       2.35879668        9       0.63391280      -0.72609264       0.58169025       0.54130590      -0.21378291      -0.16602261
S        7.31663561       4.17994902       4.95691403       10       0.77147580       0.03172880      -0.00011008      -0.44629622      -0.57858217       0.20652309
S       10.77120585       6.28730417       4.51504731       11      -0.20544066       1.09662981       0.58647894       0.55971009      -0.75372058      -0.42956448
Cl       0.06676264      -0.07816055       0.05464824       12       0.28246196      -1.19797037      -0.10392344       0.15381849      -0.60534143      -0.32047909
13
Lattice="7.26870274 0.0 0.0 3.634351370000001 6.294881225397555 0.0 3.634351370000001 2.0982937417991856 5.934870934989993" Properties=species:S:1:pos:R:3:spacegroup_kinds:I:1:momenta:R:3:forces:R:3 spacegroup="P 1" unit_cell=conventional occupancy="_JSON {\"0\": {\"Li\": 1}, \"1\": {\"Li\": 1}, \"2\": {\"Li\": 1}, \"3\": {\"Li\": 1}, \"4\": {\"Li\": 1}, \"5\": {\"Li\": 1}, \"6\": {\"P\": 1}, \"7\": {\"S\": 1}, \"8\": {\"S\": 1}, \"9\": {\"S\": 1}, \"10\": {\"S\": 1}, \"11\": {\"S\": 1}, \"12\": {\"Cl\": 1}}" energy=-53.275909423828125 free_energy=-53.275909423828125 stress="0.005657479166984558 -0.0016833721892908216 -0.004884920082986355 -0.0016833721892908216 -0.0062755257822573185 0.0005314353038556874 -0.004884920082986355 0.0005314353038556874 -0.0038986674044281244" pbc="T T T"
Li       8.90846816       7.34544406       3.53140867        0      -0.57131452       0.30827133       0.45898555       0.00464607       0.18086685       0.00779546
Li      12.97635601       5.92431233       5.70631429        1       0.11464889       1.14676482       0.28430177      -0.29762614       0.30173701      -0.07128406
Li       8.84424595       5.52548524       5.89666639        2       0.08360638       1.72475024      -0.01680400       0.85877049       0.60563105       0.15835373
Li      12.54607376       7.29665006       2.89523072        3      -0.59860062      -0.35444493      -0.81946637      -0.56344867      -0.46045280       0.26895720
Li      10.85612164       4.39273612       3.06287235        4      -0.36217563       0.86691972      -0.11187073       0.16519433       0.32567960       0.18630035
Li      10.59152232       8.18162728       5.75697791        5      -0.54467980       1.44178920       0.42370855      -0.11231071       0.12571955       0.11709690
P        7.36219592       4.21648776       2.95452468        6      -0.87843163       0.52372283       0.59074047      -0.82740521      -0.65675068      -0.58371902
S        7.27343970       6.10322416       2.22363502        7       1.42397746       0.11725633      -0.78399041       0.21716896       0.56148684       0.03091279
S        8.96789442       3.20711492       2.16490210        8       0.36832132      -0.88153554      -0.98318797       0.19715260       0.27719399      -0.03944667
S        5.64143996       3.22551625       2.36024281        9       1.79567799      -0.65577865      -0.16916810      -0.03542408      -0.06612676      -0.03643658
S        7.32110932       4.17515018       4.97895182       10      -0.34216158      -0.95150065       1.41729875      -0.26281929      -0.17716518       0.40166795
S       10.75730627       6.31268171       4.51269204       11      -0.44301474      -0.03666811      -0.50007791       0.39459687      -0.22271256      -0.19850650
Cl       0.06854536      -0.14117768       0.05603505       12      -0.04585360      -3.24954662       0.20953042       0.26150456      -0.79510677      -0.24169150
13
Lattice="7.26870274 0.0 0.0 3.634351370000001 6.294881225397555 0.0 3.634351370000001 2.0982937417991856 5.934870934989993" Properties=species:S:1:pos:R:3:spacegroup_kinds:I:1:momenta:R:3:forces:R:3 spacegroup="P 1" unit_cell=conventional occupancy="_JSON {\"0\": {\"Li\": 1}, \"1\": {\"Li\": 1}, \"2\": {\"Li\": 1}, \"3\": {\"Li\": 1}, \"4\": {\"Li\": 1}, \"5\": {\"Li\": 1}, \"6\": {\"P\": 1}, \"7\": {\"S\": 1}, \"8\": {\"S\": 1}, \"9\": {\"S\": 1}, \"10\": {\"S\": 1}, \"11\": {\"S\": 1}, \"12\": {\"Cl\": 1}}" energy=-53.51704788208008 free_energy=-53.51704788208008 stress="0.00627563800662756 -0.0072725070640444756 -0.007244254928082228 -0.0072725070640444756 -0.00046046427451074123 0.0033154229167848825 -0.007244254928082228 0.0033154229167848825 0.003915826790034771" pbc="T T T"
Li       8.84267349       7.36893492       3.63102254        0      -0.09395476       0.31196653       0.53740465      -0.04418103       0.24047545      -0.12186600
Li      12.93311394       6.07845982       5.76030606        1      -0.12539731       1.10712601       0.19936783      -0.08068392       0.15962911      -0.10419921
Li       8.93089058       5.79336079       5.86503217        2       0.68011413       1.39411781      -0.21329958       0.04957205      -0.04683703       0.29142946
Li      12.39091020       7.19253575       2.82646096        3      -1.07070580      -0.83187376       0.11452314      -0.26979762      -0.17015485       0.07129386
Li      10.81235664       4.50218238       3.06275465        4      -0.14716258       0.76791228       0.04722577       0.11375733      -0.14465222      -0.09291286
Li      10.48799762       8.32751022       5.79623736        5      -0.80067889       0.08420907       0.13214429      -0.07048514      -0.40353256      -0.12453019
P        7.33340350       4.22373248       2.95117839        6      -0.57300571       0.13701748      -1.11372523       0.47753370      -0.47691721       0.12718751
S        7.32222597       6.12879567       2.18789160        7       0.88094719       0.97786356      -0.95442598      -0.04176303       0.22758883       0.44060788
S        8.95495073       3.17419227       2.12348332        8      -0.42281952      -0.88842927      -0.99749874       0.01243318       0.51853138       0.42768484
S        5.70958829       3.19909570       2.36881633        9       1.45896989      -0.86215297       0.43371568      -1.10056353      -0.17922482      -0.37230587
S        7.30973084       4.15351283       5.03135629       10      -0.03249492      -0.08618985       0.85832244       0.22023135       0.81533194      -0.35173455
S       10.76292826       6.33470854       4.50755181       11       0.57841617       0.66403230       0.71024646       0.33419678       0.28601068      -0.03898246
Cl       0.06852556      -0.23449478       0.06003568       12      -0.33222794      -2.77559920       0.24599928       0.39974982      -0.82624876      -0.15167239
13
Lattice="7.26870274 0.0 0.0 3.634351370000001 6.294881225397555 0.0 3.634351370000001 2.0982937417991856 5.934870934989993" Properties=species:S:1:pos:R:3:spacegroup_kinds:I:1:momenta:R:3:forces:R:3 spacegroup="P 1" unit_cell=conventional occupancy="_JSON {\"0\": {\"Li\": 1}, \"1\": {\"Li\": 1}, \"2\": {\"Li\": 1}, \"3\": {\"Li\": 1}, \"4\": {\"Li\": 1}, \"5\": {\"Li\": 1}, \"6\": {\"P\": 1}, \"7\": {\"S\": 1}, \"8\": {\"S\": 1}, \"9\": {\"S\": 1}, \"10\": {\"S\": 1}, \"11\": {\"S\": 1}, \"12\": {\"Cl\": 1}}" energy=-53.411895751953125 free_energy=-53.411895751953125 stress="0.005929619539529085 -0.011800959706306458 -0.007929937914013863 -0.011800959706306458 0.002054185839369893 0.0017822792287915945 -0.007929937914013863 0.0017822792287915945 0.006055089179426432" pbc="T T T"
Li       8.77849348       7.38546000       3.69197077        0      -0.55920639      -0.02801228       0.32212758      -0.04282526       0.20581660      -0.22666503
Li      12.96189216       6.29579374       5.77021997        1       0.48899349       0.94783142      -0.10425601      -0.07162531      -0.14784828       0.07394198
Li       8.98261808       5.94972083       5.86457525        2       0.09780765       0.41728055       0.17044519      -0.30627796      -0.46410120       0.48561698
Li      12.21358668       7.08133244       2.85123126        3      -1.15805883      -0.47300694       0.27060471       0.25551334       0.33959168      -0.35241523
Li      10.82929700       4.59674710       3.09548999        4       0.39700368       0.17039495       0.28535913      -0.08154935      -0.64644372      -0.32269853
Li      10.36490130       8.31709057       5.78599082        5      -0.44564932      -0.31240511      -0.37428579       0.12391363       0.04146327      -0.05127069
P        7.29838938       4.23316504       2.93172620        6      -0.01019751       0.01388312       0.09855897       1.64406729      -0.34366739       0.64220607
S        7.36680422       6.15735833       2.16312679        7       0.93073152       0.71030680      -0.22571612      -0.39943475      -0.07188513       0.42317224
S        8.95217815       3.15327363       2.11259334        8      -0.13576029      -0.83118135       0.10517242      -0.27154136       0.66751516       0.58713973
S        5.72396808       3.17074306       2.37780463        9      -0.25177836      -0.49898211       0.02754271      -1.62039280      -0.24154060      -0.58174622
S        7.32378921       4.17731959       5.04513564       10       0.02119095       1.62887337       0.24268777       0.18035614       0.77879667      -0.72654617
S       10.79991055       6.35364948       4.52240536       11       0.92628519       0.86994996       0.13749052      -0.02532375       0.41069382       0.17306387
Cl       0.05434933      -0.33399932       0.05257955       12      -0.30136179      -2.61493237      -0.95573109       0.61512035      -0.52839065      -0.12379883
13
Lattice="7.26870274 0.0 0.0 3.634351370000001 6.294881225397555 0.0 3.634351370000001 2.0982937417991856 5.934870934989993" Properties=species:S:1:pos:R:3:spacegroup_kinds:I:1:momenta:R:3:forces:R:3 spacegroup="P 1" unit_cell=conventional occupancy="_JSON {\"0\": {\"Li\": 1}, \"1\": {\"Li\": 1}, \"2\": {\"Li\": 1}, \"3\": {\"Li\": 1}, \"4\": {\"Li\": 1}, \"5\": {\"Li\": 1}, \"6\": {\"P\": 1}, \"7\": {\"S\": 1}, \"8\": {\"S\": 1}, \"9\": {\"S\": 1}, \"10\": {\"S\": 1}, \"11\": {\"S\": 1}, \"12\": {\"Cl\": 1}}" energy=-53.311248779296875 free_energy=-53.311248779296875 stress="0.010003226809203625 -0.010157760232686996 -0.004020384047180414 -0.010157760232686996 0.0023913728073239326 0.002885200548917055 -0.004020384047180414 0.002885200548917055 0.006837700959295034" pbc="T T T"
Li       8.70505245       7.40920186       3.69411342        0      -0.22867717       0.14257266      -0.68740307       0.10353563       0.09322655      -0.11359780
Li      13.06835145       6.42980416       5.78803516        1       0.30866732       0.31951358       0.03785874      -0.70766330      -0.68405473      -0.01538234
Li       8.93314894       5.99784517       5.95440339        2      -0.44046493      -0.07279027       0.69697834      -0.03028055      -0.48911557       0.15586673
Li      12.07184805       7.07065018       2.88436892        3      -0.39016946       0.51545944       0.00901582       0.75313395       0.70579863      -0.88947523
Li      10.93437974       4.58759866       3.10322506        4       0.74006513      -0.67747286      -0.09758871      -0.19154760      -0.69719827      -0.21385562
Li      10.28516329       8.28158855       5.78326807        5      -0.13127333      -0.04386097      -0.16533367       0.29048020       0.33022788      -0.03324472
P        7.33217175       4.23435802       2.95418034        6       1.08629772       0.13044157       0.89314772       0.31952378      -0.49135059       0.24446011
S        7.40611986       6.16107380       2.14906945        7       0.90019308      -0.68090158      -0.30529840      -0.56793660      -0.35325944       0.35781634
S        8.93338009       3.14869959       2.13904302        8      -0.77355243       0.26786776       0.96389414      -0.00922924       0.49365467       0.50838917
S        5.68659384       3.12890401       2.35145420        9      -1.31986990      -0.55000484      -0.87907056      -0.42908144       0.49887490      -0.04738864
S        7.29608754       4.25476714       5.06517601       10      -1.12282416       1.81638672       0.14666831       0.11004160       0.28846103      -0.78440315
S       10.83776247       6.37315353       4.51141989       11       1.25250586       0.64643150       0.37630847      -0.74895751       0.11441848       0.83902133
Cl       0.05765040      -0.41318015       0.00823696       12       0.11910229      -1.81364266      -0.98917711       1.10798097       0.19031668      -0.00820613
13
Lattice="7.26870274 0.0 0.0 3.634351370000001 6.294881225397555 0.0 3.634351370000001 2.0982937417991856 5.934870934989993" Properties=species:S:1:pos:R:3:spacegroup_kinds:I:1:momenta:R:3:forces:R:3 spacegroup="P 1" unit_cell=conventional occupancy="_JSON {\"0\": {\"Li\": 1}, \"1\": {\"Li\": 1}, \"2\": {\"Li\": 1}, \"3\": {\"Li\": 1}, \"4\": {\"Li\": 1}, \"5\": {\"Li\": 1}, \"6\": {\"P\": 1}, \"7\": {\"S\": 1}, \"8\": {\"S\": 1}, \"9\": {\"S\": 1}, \"10\": {\"S\": 1}, \"11\": {\"S\": 1}, \"12\": {\"Cl\": 1}}" energy=-53.47627639770508 free_energy=-53.47627639770508 stress="0.010166823863983154 -0.0023415731266140938 -0.002669735811650753 -0.0023415731266140938 -5.0129998271586373e-05 0.003487878479063511 -0.002669735811650753 0.003487878479063511 0.008296801708638668" pbc="T T T"
Li       8.70545622       7.46338560       3.58220253        0       0.47589150       0.42514225      -0.42242275       0.23077768      -0.21130040       0.28058726
Li      12.97864454       6.42092722       5.84849808        1      -1.13745433      -0.31726248       0.60466187      -0.50526214      -0.41561380      -0.11244361
Li       8.84274273       5.96402287       6.06271750        2      -0.44177514      -0.44400258       0.36945179       0.20709638      -0.13763571      -0.38809526
Li      12.06343002       7.21061812       2.79498282        3       0.47968762       0.95234214      -1.01082269       0.25764823       0.08059866      -0.21988548
Li      11.02819904       4.44020933       3.09563590        4       0.32435912      -1.05494592      -0.02791397      -0.28193721       0.04871258       0.22104834
Li      10.28603490       8.29081370       5.75653517        5       0.04686026       0.25543891      -0.28493748       0.22113609       0.28290859      -0.01491569
P        7.35841114       4.22090805       2.96973250        6       0.36754061      -1.11304579       1.03307861      -0.98967344       0.05944762       0.34932470
S        7.42609294       6.12067029       2.13527464        7       0.17800376      -1.46708064      -0.74978493      -0.59874856      -0.21194294       0.17796688
S        8.91436264       3.18416471       2.19311408        8       0.06780803       0.45891039       1.47750784       0.79633772      -0.04534095       0.09337029
S        5.65235874       3.09960144       2.31788053        9      -0.54957988      -0.51878526      -0.41353590       0.33731368       0.67998695       0.27996254
S        7.25316204       4.32719141       5.06108865       10      -1.38141777       2.41787771      -0.40704453       0.03293256      -0.14511731      -0.70477414
S       10.87366841       6.40198590       4.54661777       11       0.40236143       1.16950998       0.74800767      -0.58598214      -0.14891161       0.01712449
Cl       0.08959645      -0.46465069      -0.02635644       12       1.16771483      -0.76409871      -0.91624553       0.87836111       0.16420826       0.02072980
13