13
Lattice="7.26870274 0.0 0.0 3.634351370000001 6.294881225397555 0.0 3.634351370000001 2.0982937417991856 5.934870934989993" Properties=species:S:1:pos:R:3:spacegroup_kinds:I:1:forces:R:3 spacegroup="P 1" unit_cell=conventional occupancy="_JSON {\"0\": {\"Li\": 1}, \"1\": {\"Li\": 1}, \"2\": {\"Li\": 1}, \"3\": {\"Li\": 1}, \"4\": {\"Li\": 1}, \"5\": {\"Li\": 1}, \"6\": {\"P\": 1}, \"7\": {\"S\": 1}, \"8\": {\"S\": 1}, \"9\": {\"S\": 1}, \"10\": {\"S\": 1}, \"11\": {\"S\": 1}, \"12\": {\"Cl\": 1}}" energy=-53.3634147644043 free_energy=-53.3634147644043 stress="-0.0007942070951685309 -2.3971605855876987e-07 -1.506626858827076e-07 -2.3971605855876987e-07 -0.0007939203060232103 -1.0076857392959937e-07 -1.506626858827076e-07 -1.0076857392959937e-07 -0.0007939185597933829" pbc="T T T"
Li       9.25387995       7.24703237       3.10460814        0       0.00422575      -0.00243449       0.00344765
Li      12.55222827       5.34273008       5.79769826        1      -0.00421112       0.00243320      -0.00344144
Li       9.25387995       5.34273008       5.79769826        2       0.00422546       0.00243911      -0.00344736
Li      12.55222827       7.24703237       3.10460814        3      -0.00421245      -0.00243122       0.00344167
Li      10.90305411       4.39057894       3.10460814        4       0.00000246       0.00487635       0.00344871
Li      10.90305411       8.19918351       5.79769826        5       0.00000185      -0.00486378      -0.00344170
P        7.26870274       4.19658748       2.96743547        6       0.00008563       0.00004594       0.00003627
S        7.26870637       6.13578650       2.28182731        7      -0.00001844      -0.01090910       0.00384757
S        8.94810016       3.22699113       2.28182731        8      -0.00945839       0.00544021       0.00384770
S        5.58931258       3.22699113       2.28182731        9       0.00937799       0.00541347       0.00383027
S        7.26870637       4.19658958       5.02426588       10      -0.00001859      -0.00000959      -0.01156992
S       10.90305411       6.29488123       4.45115320       11      -0.00000109      -0.00000166      -0.00000042
Cl       0.00000000       0.00000000       0.00000000       12       0.00000095       0.00000156       0.00000101
