56
Lattice="10.7619164 0.0 0.0 -9.665296305262016 4.732958053065482 0.0 -0.5483100463354086 -2.3664790220718444 10.484177494289693" Properties=species:S:1:pos:R:3:spacegroup_kinds:I:1:forces:R:3 spacegroup="P 1" unit_cell=conventional occupancy="_JSON {\"0\": {\"H\": 1}, \"1\": {\"H\": 1}, \"2\": {\"H\": 1}, \"3\": {\"H\": 1}, \"4\": {\"H\": 1}, \"5\": {\"H\": 1}, \"6\": {\"H\": 1}, \"7\": {\"H\": 1}, \"8\": {\"H\": 1}, \"9\": {\"H\": 1}, \"10\": {\"H\": 1}, \"11\": {\"H\": 1}, \"12\": {\"H\": 1}, \"13\": {\"H\": 1}, \"14\": {\"H\": 1}, \"15\": {\"H\": 1}, \"16\": {\"H\": 1}, \"17\": {\"H\": 1}, \"18\": {\"H\": 1}, \"19\": {\"H\": 1}, \"20\": {\"H\": 1}, \"21\": {\"H\": 1}, \"22\": {\"H\": 1}, \"23\": {\"H\": 1}, \"24\": {\"H\": 1}, \"25\": {\"H\": 1}, \"26\": {\"H\": 1}, \"27\": {\"H\": 1}, \"28\": {\"H\": 1}, \"29\": {\"H\": 1}, \"30\": {\"H\": 1}, \"31\": {\"H\": 1}, \"32\": {\"C\": 1}, \"33\": {\"C\": 1}, \"34\": {\"C\": 1}, \"35\": {\"C\": 1}, \"36\": {\"C\": 1}, \"37\": {\"C\": 1}, \"38\": {\"C\": 1}, \"39\": {\"C\": 1}, \"40\": {\"C\": 1}, \"41\": {\"C\": 1}, \"42\": {\"C\": 1}, \"43\": {\"C\": 1}, \"44\": {\"C\": 1}, \"45\": {\"C\": 1}, \"46\": {\"C\": 1}, \"47\": {\"C\": 1}, \"48\": {\"O\": 1}, \"49\": {\"O\": 1}, \"50\": {\"O\": 1}, \"51\": {\"O\": 1}, \"52\": {\"O\": 1}, \"53\": {\"O\": 1}, \"54\": {\"O\": 1}, \"55\": {\"O\": 1}}" energy=-315.21038818359375 free_energy=-315.21038818359375 stress="0.0014445653650909662 -0.000562898872885853 9.610072737586961e-08 -0.000562898872885853 -0.0008545629098080099 -6.370439820102547e-08 9.610072737586961e-08 -6.370439820102547e-08 0.0015756406355649233" pbc="T T T"
H       -0.01146673       2.27735376       1.83228363        0       0.05954295      -0.00327619       0.06233854
H        0.46354041      -0.32622644       8.65189388        1      -0.05491786       0.02317582      -0.06235525
H        7.11783644      -0.62125596       5.76730111        2       0.06303611      -0.00415060      -0.05874482
H        3.54784285       0.20590514       4.71687608        3      -0.05845449       0.02398644       0.05874171
H        5.94073499       0.08912526       3.40980510        4      -0.05953976       0.00327761      -0.06233646
H        4.91741781       0.32622654       7.07437240        5       0.05491437      -0.02316915       0.06236531
H       -1.73687825       0.62125612       9.95896513        6      -0.06303763       0.00415885       0.05874471
H        2.38142539       2.16057390       0.52521270        7       0.05845536      -0.02398863      -0.05874396
H       -1.38551754       1.18149074       2.11598469        8      -0.01113792       0.08955093       0.00594895
H       -8.44966009       2.81824229       8.36819218        9       0.04931337       0.07553622      -0.00592656
H       -2.58205883       2.70548916       6.85853646       10       0.02489231       0.08117962       0.03102886
H       -6.70482303       3.66072964       3.62563947       11       0.01337829       0.08383606      -0.03101383
H       -3.44713061       1.18498829       3.12610407       12       0.01115897      -0.08955123      -0.00594415
H       -6.59659445       1.91471578       7.35807407       13      -0.04930681      -0.07554566       0.00593437
H       -1.70227923       2.02746897       8.86772962       14      -0.02490155      -0.08118898      -0.03099517
H       -7.79312146       3.43870743       1.61644925       15      -0.01337436      -0.08383945       0.03100569
H       -0.77623955       0.71965044       4.36329759       16      -0.01323421      -0.01213604       0.02308649
H        1.56195591       2.67141835       6.12088029       17       0.00653520      -0.01672784      -0.02309649
H       -0.46326720       1.89389614       6.16073604       18       0.01919686      -0.01968158       0.01018733
H        0.70065483      -0.86930480       4.32344242       19      -0.02583192      -0.00920616      -0.01018541
H        6.70550784       1.64682866       0.87879113       20       0.01323267       0.01213496      -0.02308491
H       -5.84629404       2.06153966       9.60538593       21      -0.00653616       0.01672597       0.02309458
H        5.84422538      -1.89389611       9.56553024       22      -0.01918976       0.01966859      -0.01017750
H       -5.53330301       3.23578383       0.91864627       23       0.02584096       0.00921533       0.01018906
H        0.25118893       0.51320652       1.94904364       24      -0.01400610      -0.01703913      -0.02868831
H       -0.54820846      -1.79509606       8.53513266       25       0.00518248      -0.02145615       0.02868105
H       -2.80824660       2.46883415       5.11321221       26      -0.03240756      -0.01272127       0.00990928
H       -6.60574339       3.34870703       5.37096440       27       0.02347721      -0.02566499      -0.00992680
H       -5.08383702       1.85327248       3.29304511       28       0.01400371       0.01703790       0.02868904
H       -4.83274949       1.79509621       7.19113351       29      -0.00520884       0.02144522      -0.02866512
H       -0.92778153       4.63060280       0.12887635       30       0.03240978       0.01272138      -0.00991071
H        2.32140525       1.38425108      10.35530180       31      -0.02347568       0.02567128       0.00991850
C       -0.12855712       1.44666454       3.84724417       32      -0.06474371      -0.02297431       0.02711135
C        0.20337422      -1.12376648       6.63693320       33       0.04808117      -0.04911588      -0.02705979
C       -0.77313051       2.84277400       5.69386795       34       0.01803404      -0.04222202       0.05795829
C        1.39625478      -0.15339358       4.79030933       35      -0.03474274      -0.02991578      -0.05791445
C        6.05782526       0.91981440       1.39484460       36       0.06475702       0.02297334      -0.02710655
C       -5.58433220       1.12376664       9.08933300       37      -0.04808993       0.04911429       0.02707717
C       -3.51120742       1.89018399      10.03239813       38      -0.01806933       0.04223030      -0.05796683
C        4.53301351       2.51987246       0.45177956       39       0.03474760       0.02992412       0.05790888
C       -0.32629464       1.35816528       2.34320610       40       0.01374725       0.00373653      -0.01267576
C        0.34204070      -1.29021282       8.14097361       41      -0.01071756       0.00947019       0.01263620
C       -2.26788799       3.05478920       5.86652619       42      -0.01084417       0.00948854      -0.01263962
C        2.83194262      -0.62035933       4.61765399       43       0.01386670       0.00375921       0.01261373
C        6.25556282       1.00831377       2.89888265       44      -0.01376727      -0.00373854       0.01266631
C       -5.72299918       1.29021261       7.58529265       45       0.01074447      -0.00945082      -0.01267720
C       -2.01645026       1.67816877       9.85974051       46       0.01086789      -0.00948973       0.01260944
C        3.09732574       2.98683831       0.62443475       47      -0.01388590      -0.00375891      -0.01259661
O       -0.42617555       2.75832689       4.28195553       48      -0.00160989      -0.01560225      -0.00606951
O        1.04750942      -0.07664206       6.20222132       49      -0.00534975      -0.01474500       0.00606425
O       -1.17299330      -0.80891944       6.27987374       50      -0.00940090      -0.01381628      -0.00193632
O        1.24603231       1.12411995       4.20430308       51       0.00225452      -0.01656282       0.00193225
O       -3.30985252       4.34111019       0.96013318       52       0.00160922       0.01560213       0.00605942
O        4.33344870       0.07664206       9.52404500       53       0.00534977       0.01474285      -0.00606605
O       -4.20796492       0.80891947       9.44639258       54       0.00941736       0.01382521       0.00193514
O        4.68323599       1.24235916       1.03778561       55      -0.00226626       0.01654631      -0.00193196
