4
Lattice="3.128588 0.0 0.0 -1.5642939988088433 2.709436998432005 0.0 0.0 0.0 5.016955" Properties=species:S:1:pos:R:3:spacegroup_kinds:I:1:momenta:R:3:forces:R:3 spacegroup="P 1" unit_cell=conventional occupancy="_JSON {\"0\": {\"Al\": 1}, \"1\": {\"Al\": 1}, \"2\": {\"N\": 1}, \"3\": {\"N\": 1}}" energy=-29.623741149902344 free_energy=-29.623741149902344 stress="0.004300318658351898 -0.008672736585140228 0.0028819849248975515 -0.008672736585140228 -0.006943753454834223 -0.00443448917940259 0.0028819849248975515 -0.00443448917940259 -0.014839131385087967" pbc="T T T"
Al       1.54321205       0.89379621       2.53645986        0      -0.00705438      -0.41529108       0.79444969      -0.25250319       0.39302978      -0.87834549
Al       0.03580898       1.79893950       4.98957807        1       0.09337951      -0.29525121      -0.61191979      -0.16600904       0.14057958       0.62745231
N        1.59619756       0.90645095       4.40111844        2      -0.02189849       1.09350641       0.27120900      -0.08899997      -0.09593688       0.34911230
N       -0.05911262       1.83464209       1.91219258        3      -0.06442664      -0.38296412      -0.45373888       0.50751203      -0.43767262      -0.09821931
