4
Lattice="3.128588 0.0 0.0 -1.5642939988088433 2.709436998432005 0.0 0.0 0.0 5.016955" Properties=species:S:1:pos:R:3:spacegroup_kinds:I:1:momenta:R:3:forces:R:3 spacegroup="P 1" unit_cell=conventional occupancy="_JSON {\"0\": {\"Al\": 1}, \"1\": {\"Al\": 1}, \"2\": {\"N\": 1}, \"3\": {\"N\": 1}}" energy=-29.673715591430664 free_energy=-29.673715591430664 stress="-0.0022254877258092165 -1.394459559378447e-06 -7.576671734454976e-09 -1.394459559378447e-06 -0.002227555261924863 -1.8526478129388124e-08 -7.576671734454976e-09 -1.8526478129388124e-08 -0.005453808233141899" pbc="T T T"
Al       1.56429556       0.90314476       2.50490041        0       0.68448204       0.53670047       0.91071479      -0.00003474       0.00002000       0.00553246
Al      -0.00000156       1.80629224       5.01337791        1       0.31075784       0.39520501      -1.87833745       0.00003442      -0.00002091       0.00552297
N        1.56429556       0.90314476       4.41849749        2      -0.23293981      -0.79739853      -0.40745139      -0.00003628       0.00002172      -0.00553028
N       -0.00000156       1.80629224       1.91001999        3      -0.76230006      -0.13450696       1.37507406       0.00003643      -0.00002097      -0.00552469
4
Lattice="3.128588 0.0 0.0 -1.5642939988088433 2.709436998432005 0.0 0.0 0.0 5.016955" Properties=species:S:1:pos:R:3:spacegroup_kinds:I:1:momenta:R:3:forces:R:3 spacegroup="P 1" unit_cell=conventional occupancy="_JSON {\"0\": {\"Al\": 1}, \"1\": {\"Al\": 1}, \"2\": {\"N\": 1}, \"3\": {\"N\": 1}}" energy=-29.43359375 free_energy=-29.43359375 stress="-0.013773559592664242 -0.016446352005004883 0.012948796153068542 -0.016446352005004883 -0.02396886795759201 0.00996976438909769 0.012948796153068542 0.00996976438909769 -0.012059381231665611" pbc="T T T"
Al       1.60246141       0.92231284       2.54150849        0       0.57498212      -0.13491996       1.02882486      -1.31301367      -0.49033457      -0.87831354
Al       0.00328789       1.81111139       4.94718774        1      -0.44725807       0.00118054      -1.07867324      -0.30154303      -0.59423232       1.18011880
N        1.53678587       0.85870780       4.38099595        2       0.14052031      -0.46066731       0.20203873       0.28490904       0.67984486       1.25553715
N       -0.05228245       1.80432671       2.00436660        3      -0.26824440       0.59440669      -0.15219033       1.32964754       0.40472198      -1.55734241
4
Lattice="3.128588 0.0 0.0 -1.5642939988088433 2.709436998432005 0.0 0.0 0.0 5.016955" Properties=species:S:1:pos:R:3:spacegroup_kinds:I:1:momenta:R:3:forces:R:3 spacegroup="P 1" unit_cell=conventional occupancy="_JSON {\"0\": {\"Al\": 1}, \"1\": {\"Al\": 1}, \"2\": {\"N\": 1}, \"3\": {\"N\": 1}}" energy=-29.5672550201416 free_energy=-29.5672550201416 stress="0.012915927916765213 0.0017025447450578213 0.00357931200414896 0.0017025447450578213 -0.025857126340270042 -0.005369116552174091 0.00357931200414896 -0.005369116552174091 -0.011435282416641712" pbc="T T T"
Al       1.59598186       0.90138485       2.55101266        0      -0.85003965      -0.64755182      -0.41676278      -0.33522561       0.74370313      -1.26921201
Al      -0.01311800       1.79082858       4.96769657        1      -0.24557040      -0.74327792       1.65595785      -0.18280298      -0.17026895       1.21499693
N        1.52960409       0.86779351       4.41996341        2       0.16413082       0.60763583       0.63654569       0.31887734       0.39321506      -0.09056834
N       -0.00060095       1.87475189       1.90756519        3       0.93147920       0.78319385      -1.87574070       0.19915131      -0.96664917       0.14478348
4
Lattice="3.128588 0.0 0.0 -1.5642939988088433 2.709436998432005 0.0 0.0 0.0 5.016955" Properties=species:S:1:pos:R:3:spacegroup_kinds:I:1:momenta:R:3:forces:R:3 spacegroup="P 1" unit_cell=conventional occupancy="_JSON {\"0\": {\"Al\": 1}, \"1\": {\"Al\": 1}, \"2\": {\"N\": 1}, \"3\": {\"N\": 1}}" energy=-29.406274795532227 free_energy=-29.406274795532227 stress="0.010688927955925465 0.016498174518346786 -0.008164022117853165 0.016498174518346786 -0.009423322044312954 -0.015553910285234451 -0.008164022117853165 -0.015553910285234451 -0.06125406175851822" pbc="T T T"
Al       1.53423929       0.87298460       2.51007454        0      -1.60925374       0.09619188      -1.03262313       0.74608779       1.00298548       0.03482363
Al      -0.01349003       1.78470222       5.05709164        1       0.21561275      -0.04339814       1.72443308       0.02271332       0.40732780      -1.66436934
N        1.55208974       0.92225132       4.42203508        2       0.38659366       0.63935827      -0.93002919       0.04495706      -0.39009485      -0.56986105
N        0.09667395       1.88681819       1.81230437        3       1.00704732      -0.69215207       0.23821933      -0.81375819      -1.02021849       2.19940639
4
Lattice="3.128588 0.0 0.0 -1.5642939988088433 2.709436998432005 0.0 0.0 0.0 5.016955" Properties=species:S:1:pos:R:3:spacegroup_kinds:I:1:momenta:R:3:forces:R:3 spacegroup="P 1" unit_cell=conventional occupancy="_JSON {\"0\": {\"Al\": 1}, \"1\": {\"Al\": 1}, \"2\": {\"N\": 1}, \"3\": {\"N\": 1}}" energy=-29.201904296875 free_energy=-29.201904296875 stress="-0.026440756395459175 0.03815516456961632 -0.031382687389850616 0.03815516456961632 -0.004877370782196522 0.0015437172260135412 -0.031382687389850616 0.0015437172260135412 -0.05181972682476044" pbc="T T T"
Al       1.49382402       0.87740191       2.48150490        0      -0.08661684      -0.02748783       0.25595524       2.48428202      -0.46186483       1.22611594
Al      -0.02076735       1.79337850       5.08843296        1       0.00716731       0.60209036      -1.27068248       0.64723331       0.57433450      -2.36003947
N        1.60157220       0.96971686       4.33361318        2       0.49437276       0.53651051      -0.17473376      -0.53882587      -0.70145226       1.74608791
N        0.13924906       1.81421456       1.89535167        3      -0.41492323      -1.11111309       1.18946105      -2.59268928       0.58898270      -0.61216450
4
Lattice="3.128588 0.0 0.0 -1.5642939988088433 2.709436998432005 0.0 0.0 0.0 5.016955" Properties=species:S:1:pos:R:3:spacegroup_kinds:I:1:momenta:R:3:forces:R:3 spacegroup="P 1" unit_cell=conventional occupancy="_JSON {\"0\": {\"Al\": 1}, \"1\": {\"Al\": 1}, \"2\": {\"N\": 1}, \"3\": {\"N\": 1}}" energy=-29.574628829956055 free_energy=-29.574628829956055 stress="-0.023617906495928764 -0.014321333728730679 -0.0111279571428895 -0.014321333728730679 0.01502987090498209 -0.002854682505130768 -0.0111279571428895 -0.002854682505130768 -0.014440192840993404" pbc="T T T"
Al       1.53421959       0.88369269       2.53780581        0       1.55944017       0.36820890       1.55970998       0.29264414      -0.24000484      -0.91367781
Al      -0.00048006       1.82107762       4.98837344        1       1.01688517       0.86374281      -2.47525445       0.94369638       0.52251536       0.78486437
N        1.63583966       0.96584653       4.40663184        2      -0.31021840      -0.52489275       1.27117435      -1.15103853      -0.78907084       0.05687968
N       -0.01177519       1.75252282       1.90648730        3      -2.26610700      -0.70705904      -0.35562987      -0.08530201       0.50656033       0.07193334
4
Lattice="3.128588 0.0 0.0 -1.5642939988088433 2.709436998432005 0.0 0.0 0.0 5.016955" Properties=species:S:1:pos:R:3:spacegroup_kinds:I:1:momenta:R:3:forces:R:3 spacegroup="P 1" unit_cell=conventional occupancy="_JSON {\"0\": {\"Al\": 1}, \"1\": {\"Al\": 1}, \"2\": {\"N\": 1}, \"3\": {\"N\": 1}}" energy=-29.372068405151367 free_energy=-29.372068405151367 stress="-0.005629471503198147 -0.018719572573900223 0.015849368646740913 -0.018719572573900223 -0.03227278217673302 0.01721220463514328 0.015849368646740913 0.01721220463514328 -0.007298485841602087" pbc="T T T"
Al       1.57072833       0.88046442       2.56331975        0      -0.00039168      -0.37629470      -0.57844058      -1.34386158      -0.44065583      -1.50707960
Al       0.05055070       1.86456079       4.94968571        1       0.52727018       0.77034192       1.04960173      -0.49128562      -1.36434245       1.82584715
N        1.58204804       0.88176662       4.44992393        2      -0.27832247      -1.02263427      -0.55459318       0.15003274       1.16376555      -0.85894889
N       -0.12661086       1.75915454       1.88869863        3      -0.24855610       0.62858697       0.08343199       1.68511438       0.64123273       0.54018110
4
Lattice="3.128588 0.0 0.0 -1.5642939988088433 2.709436998432005 0.0 0.0 0.0 5.016955" Properties=species:S:1:pos:R:3:spacegroup_kinds:I:1:momenta:R:3:forces:R:3 spacegroup="P 1" unit_cell=conventional occupancy="_JSON {\"0\": {\"Al\": 1}, \"1\": {\"Al\": 1}, \"2\": {\"N\": 1}, \"3\": {\"N\": 1}}" energy=-29.596925735473633 free_energy=-29.596925735473633 stress="0.015976358205080032 -0.004506301134824753 0.006018658168613911 -0.004506301134824753 -0.025499384850263596 -0.004597162827849388 0.006018658168613911 -0.004597162827849388 -0.010013752616941929" pbc="T T T"
Al       1.53284808       0.86390067       2.51395076        0      -1.59464495      -0.16469698      -1.74991361      -0.27820814       0.89915574      -0.15420337
Al       0.06317841       1.83227865       5.00948381        1       0.38440009      -1.80666566       1.59449925      -0.58708692      -0.41271606       0.16724932
N        1.58572480       0.89623784       4.41422576        2       0.14193150       1.12964893      -0.09119169       0.25704208       0.38076627       0.00228150
N       -0.08152111       1.83862418       1.90381446        3       1.06831331       0.84171365       0.24660605       0.60825300      -0.86720556      -0.01532700
4
Lattice="3.128588 0.0 0.0 -1.5642939988088433 2.709436998432005 0.0 0.0 0.0 5.016955" Properties=species:S:1:pos:R:3:spacegroup_kinds:I:1:momenta:R:3:forces:R:3 spacegroup="P 1" unit_cell=conventional occupancy="_JSON {\"0\": {\"Al\": 1}, \"1\": {\"Al\": 1}, \"2\": {\"N\": 1}, \"3\": {\"N\": 1}}" energy=-29.462553024291992 free_energy=-29.462553024291992 stress="-0.005697251297533512 0.010849444195628166 -0.0039066229946911335 0.010849444195628166 -0.019133802503347397 -0.01270319428294897 -0.0039066229946911335 -0.01270319428294897 -0.011871252208948135" pbc="T T T"
Al       1.48347331       0.88264394       2.44527928        0      -0.30454549       1.01149498      -0.60004523       0.88393104       0.95768470       1.70777035
Al       0.06164410       1.77681260       5.07306071        1      -0.86715242      -0.75617412       0.43048869      -0.30080575       0.71655309      -1.72279859
N        1.61717709       0.94947181       4.40498428        2       0.38645826       0.04830102       0.18623323      -0.07234049      -0.67486018       0.48910576
N       -0.01486934       1.85626149       1.92266703        3       0.78523960      -0.30362194      -0.01667675      -0.51078492      -0.99937737      -0.47407719
4
Lattice="3.128588 0.0 0.0 -1.5642939988088433 2.709436998432005 0.0 0.0 0.0 5.016955" Properties=species:S:1:pos:R:3:spacegroup_kinds:I:1:momenta:R:3:forces:R:3 spacegroup="P 1" unit_cell=conventional occupancy="_JSON {\"0\": {\"Al\": 1}, \"1\": {\"Al\": 1}, \"2\": {\"N\": 1}, \"3\": {\"N\": 1}}" energy=-29.518749237060547 free_energy=-29.518749237060547 stress="-0.023370780050754547 0.006539925467222929 -0.016098270192742348 0.006539925467222929 0.0066973865032196045 -0.0004823926428798586 -0.016098270192742348 -0.0004823926428798586 -0.022161250934004784" pbc="T T T"
Al       1.50607636       0.94974318       2.46463696        0       1.15921296       0.62635233       1.50689935       1.24247432      -0.60704476       1.15697384
Al       0.01335470       1.75088040       5.06242873        1      -0.91112034       0.14825223      -0.88962617       0.51474702       0.69610518      -1.43088889
N        1.62637956       0.90489618       4.42127858        2      -0.14223528      -0.64065015       0.21498375      -0.71771884      -0.51824093      -0.07984851
N        0.02538013       1.82158364       1.88963028        3      -0.10585741      -0.13395443      -0.83225698      -1.03950262       0.42918074       0.35376355
4
Lattice="3.128588 0.0 0.0 -1.5642939988088433 2.709436998432005 0.0 0.0 0.0 5.016955" Properties=species:S:1:pos:R:3:spacegroup_kinds:I:1:momenta:R:3:forces:R:3 spacegroup="P 1" unit_cell=conventional occupancy="_JSON {\"0\": {\"Al\": 1}, \"1\": {\"Al\": 1}, \"2\": {\"N\": 1}, \"3\": {\"N\": 1}}" energy=-29.605009078979492 free_energy=-29.605009078979492 stress="0.0015958318253979087 -0.006785904988646507 -0.003095526248216629 -0.006785904988646507 0.0017807231051847339 0.0017243288457393646 -0.003095526248216629 0.0017243288457393646 -0.023113667964935303" pbc="T T T"
Al       1.56693924       0.93861030       2.54470909        0       1.44875362      -0.98943818       1.48437351      -0.01659256      -0.29131681      -1.20300627
Al      -0.01304572       1.78057345       4.99752453        1       0.01689744       1.11024963      -1.70729922       0.38438988       0.02358284       0.50760311
N        1.58384204       0.87104971       4.42155574        2      -0.67927430      -0.02704935      -0.19037176      -0.39237154       0.15177841      -0.39792448
N        0.00122215       1.81989276       1.85992052        3      -0.78637685      -0.09376213       0.41329747       0.02457427       0.11595550       1.09332776
4
Lattice="3.128588 0.0 0.0 -1.5642939988088433 2.709436998432005 0.0 0.0 0.0 5.016955" Properties=species:S:1:pos:R:3:spacegroup_kinds:I:1:momenta:R:3:forces:R:3 spacegroup="P 1" unit_cell=conventional occupancy="_JSON {\"0\": {\"Al\": 1}, \"1\": {\"Al\": 1}, \"2\": {\"N\": 1}, \"3\": {\"N\": 1}}" energy=-29.47020721435547 free_energy=-29.47020721435547 stress="0.0032033303286880255 -0.017801564186811447 0.011838403530418873 -0.017801564186811447 -0.04134911671280861 0.00735990097746253 0.011838403530418873 0.00735990097746253 -0.005160295870155096" pbc="T T T"
Al       1.62755628       0.89950078       2.54516750        0       1.04970781      -0.99981894      -0.80202867      -1.41065276       0.15933222      -0.91778922
Al      -0.00757061       1.81703572       4.95606289        1      -0.03757972       0.11959887      -0.16512786      -0.26242590      -0.84351766       1.41445863
N        1.52756235       0.85151203       4.42065483        2      -0.42752203       0.29023023      -0.07965780       0.31765774       0.98894811      -0.00115474
N       -0.06966665       1.84442110       1.93994533        3      -0.58460610       0.58998979       1.04681435       1.35542083      -0.30476230      -0.49551463
4
Lattice="3.128588 0.0 0.0 -1.5642939988088433 2.709436998432005 0.0 0.0 0.0 5.016955" Properties=species:S:1:pos:R:3:spacegroup_kinds:I:1:momenta:R:3:forces:R:3 spacegroup="P 1" unit_cell=conventional occupancy="_JSON {\"0\": {\"Al\": 1}, \"1\": {\"Al\": 1}, \"2\": {\"N\": 1}, \"3\": {\"N\": 1}}" energy=-29.452987670898438 free_energy=-29.452987670898438 stress="-0.013224772177636623 -0.02375010959804058 0.007911457680165768 -0.02375010959804058 -0.047931935638189316 -0.007333351299166679 0.007911457680165768 -0.007333351299166679 0.028632836416363716" pbc="T T T"
Al       1.63184039       0.85684026       2.46693549        0      -0.97589077      -0.55899578      -1.34838351      -1.39009881       1.11026490       1.17304146
Al      -0.02377746       1.82170282       4.98999601        1      -0.28018773       0.45883550       1.28013457      -0.08532312       0.08283455       0.34697142
N        1.52792697       0.92957745       4.44479004        2       0.11446428       0.97873204       0.08012583       0.22035879      -0.17398752       0.05598649
N       -0.04718868       1.83921502       2.00086009        3       1.14161418      -0.87857177      -0.01187690       1.25506306      -1.01911163      -1.57599950
4
Lattice="3.128588 0.0 0.0 -1.5642939988088433 2.709436998432005 0.0 0.0 0.0 5.016955" Properties=species:S:1:pos:R:3:spacegroup_kinds:I:1:momenta:R:3:forces:R:3 spacegroup="P 1" unit_cell=conventional occupancy="_JSON {\"0\": {\"Al\": 1}, \"1\": {\"Al\": 1}, \"2\": {\"N\": 1}, \"3\": {\"N\": 1}}" energy=-29.53631591796875 free_energy=-29.53631591796875 stress="-0.01985756866633892 0.013828963041305542 -0.005717385094612837 0.013828963041305542 -0.003163850400596857 -0.0016709989868104458 -0.005717385094612837 -0.0016709989868104458 -0.006260510999709368" pbc="T T T"
Al       1.56291507       0.86348345       2.43836897        0      -1.44558819       0.38889114       0.34074955       0.67285943       0.11609316       1.45909667
Al      -0.01834141       1.83613137       5.05736568        1       0.19731527      -0.00921592       1.04742071       0.06595311       0.15003665      -1.19267440
N        1.54726693       0.95741145       4.47045641        2      -0.01024007       0.05685100       0.14844059       0.09761336      -0.44420987      -0.65174758
N        0.05576966       1.77068663       1.90062729        3       1.25851298      -0.43652621      -1.53661081      -0.83642578       0.17808007       0.38532504
4
Lattice="3.128588 0.0 0.0 -1.5642939988088433 2.709436998432005 0.0 0.0 0.0 5.016955" Properties=species:S:1:pos:R:3:spacegroup_kinds:I:1:momenta:R:3:forces:R:3 spacegroup="P 1" unit_cell=conventional occupancy="_JSON {\"0\": {\"Al\": 1}, \"1\": {\"Al\": 1}, \"2\": {\"N\": 1}, \"3\": {\"N\": 1}}" energy=-29.5310001373291 free_energy=-29.5310001373291 stress="-0.01829403080046177 0.015707463026046753 -0.011607690714299679 0.015707463026046753 0.0031478633172810078 0.004605699796229601 -0.011607690714299679 0.004605699796229601 -0.0172588974237442" pbc="T T T"
Al       1.54701075       0.87273543       2.46070915        0       0.71855727      -0.11584392       0.49435342       1.07476568      -0.28505999       1.06925440
Al      -0.01761628       1.84389394       5.05391118        1       0.19346375       0.17720420      -0.69190123       0.23187718      -0.07942021      -1.16825104
N        1.56395350       0.94331124       4.45961400        2       0.32487492      -0.12409394      -0.51346175      -0.11547153      -0.20503107      -0.72920173
N        0.06831348       1.75176763       1.87546338        3      -1.23689598       0.06273367       0.71100950      -1.19117141       0.56951165       0.82819831
4
Lattice="3.128588 0.0 0.0 -1.5642939988088433 2.709436998432005 0.0 0.0 0.0 5.016955" Properties=species:S:1:pos:R:3:spacegroup_kinds:I:1:momenta:R:3:forces:R:3 spacegroup="P 1" unit_cell=conventional occupancy="_JSON {\"0\": {\"Al\": 1}, \"1\": {\"Al\": 1}, \"2\": {\"N\": 1}, \"3\": {\"N\": 1}}" energy=-29.61321449279785 free_energy=-29.61321449279785 stress="-0.008381671272218227 -0.004276578314602375 0.005492853466421366 -0.004276578314602375 -0.013937044888734818 0.0014804019592702389 0.005492853466421366 0.0014804019592702389 0.012475373223423958" pbc="T T T"
Al       1.57767908       0.87033374       2.48321564        0       0.42145864      -0.10086014       0.75449369      -0.50598675       0.14215362       0.64867604
Al       0.00878679       1.84488740       5.00616579        1       0.94842497       0.04829700      -0.67234610      -0.28191090      -0.37569687       0.05942889
N        1.54733739       0.91884314       4.41695260        2      -0.50233565      -0.06173874      -0.86681693       0.26756811       0.16352491       0.34766638
N       -0.02491945       1.77881441       1.96659665        3      -0.86754800       0.11430188       0.78466932       0.52032948       0.07001839      -1.05577087
4
Lattice="3.128588 0.0 0.0 -1.5642939988088433 2.709436998432005 0.0 0.0 0.0 5.016955" Properties=species:S:1:pos:R:3:spacegroup_kinds:I:1:momenta:R:3:forces:R:3 spacegroup="P 1" unit_cell=conventional occupancy="_JSON {\"0\": {\"Al\": 1}, \"1\": {\"Al\": 1}, \"2\": {\"N\": 1}, \"3\": {\"N\": 1}}" energy=-29.55784034729004 free_energy=-29.55784034729004 stress="-0.016363976523280144 -0.0029476964846253395 0.012903758324682713 -0.0029476964846253395 -0.006207617465406656 0.001537568517960608 0.012903758324682713 0.001537568517960608 -0.002714524045586586" pbc="T T T"
Al       1.59068813       0.88023426       2.52274585        0      -0.41625593       0.17887089       0.33160771      -0.90884334      -0.14030930      -0.36867827
Al       0.01872290       1.83477378       4.97781994        1       0.14974017      -0.20763046      -0.17578503      -0.72829741      -0.10046346       0.72652423
N        1.52039170       0.92489996       4.39464373        2       0.19754321       0.25939885       0.47781779       0.72475874      -0.09605112       0.71574247
N       -0.04216865       1.77342024       1.96745699        3       0.06897256      -0.23063929      -0.63364047       0.91238189       0.33682376      -1.07358825
4
Lattice="3.128588 0.0 0.0 -1.5642939988088433 2.709436998432005 0.0 0.0 0.0 5.016955" Properties=species:S:1:pos:R:3:spacegroup_kinds:I:1:momenta:R:3:forces:R:3 spacegroup="P 1" unit_cell=conventional occupancy="_JSON {\"0\": {\"Al\": 1}, \"1\": {\"Al\": 1}, \"2\": {\"N\": 1}, \"3\": {\"N\": 1}}" energy=-29.621112823486328 free_energy=-29.621112823486328 stress="-0.021500788629055023 0.005276433192193508 -0.003267428372055292 0.005276433192193508 0.010657617822289467 0.001924937590956688 -0.003267428372055292 0.001924937590956688 -0.0015899438876658678" pbc="T T T"
Al       1.54767649       0.89587760       2.50832858        0      -0.85810006       0.46896542      -1.00002989       0.39160639      -0.39029115      -0.15032665
Al       0.00665802       1.82067516       5.00342495        1      -0.72966961      -0.11082638       1.46536684      -0.00949946       0.22696988       0.34863034
N        1.57185927       0.94293298       4.45440722        2       0.62349869      -0.37686540       0.64593217      -0.01969797      -0.43335292      -0.83890057
N        0.01256033       1.75229417       1.88600535        3       0.96427098       0.01872634      -1.11126910      -0.36240897       0.59667432       0.64059651
4
Lattice="3.128588 0.0 0.0 -1.5642939988088433 2.709436998432005 0.0 0.0 0.0 5.016955" Properties=species:S:1:pos:R:3:spacegroup_kinds:I:1:momenta:R:3:forces:R:3 spacegroup="P 1" unit_cell=conventional occupancy="_JSON {\"0\": {\"Al\": 1}, \"1\": {\"Al\": 1}, \"2\": {\"N\": 1}, \"3\": {\"N\": 1}}" energy=-29.520856857299805 free_energy=-29.520856857299805 stress="-0.014047287404537201 0.011821003630757332 -0.01425557117909193 0.011821003630757332 -0.005614703521132469 0.009361447766423225 -0.01425557117909193 0.009361447766423225 -0.019571106880903244" pbc="T T T"
Al       1.52999428       0.91403914       2.46474573        0       0.09545113      -0.23101251      -1.18071327       1.21875238      -0.63577038       0.99289966
Al      -0.00890655       1.82180734       5.05208965        1       0.31216878      -0.10747468       0.45537752       0.39472669      -0.38378426      -1.12710321
N        1.59437710       0.88605552       4.45928986        2      -0.04798979      -0.53350330      -0.20523336      -0.40810460       0.35578892      -0.79021680
N        0.05384448       1.77207216       1.87144999        3      -0.35963013       0.87199048       0.93056907      -1.20537436       0.66376567       0.92442018
4
Lattice="3.128588 0.0 0.0 -1.5642939988088433 2.709436998432005 0.0 0.0 0.0 5.016955" Properties=species:S:1:pos:R:3:spacegroup_kinds:I:1:momenta:R:3:forces:R:3 spacegroup="P 1" unit_cell=conventional occupancy="_JSON {\"0\": {\"Al\": 1}, \"1\": {\"Al\": 1}, \"2\": {\"N\": 1}, \"3\": {\"N\": 1}}" energy=-29.618785858154297 free_energy=-29.618785858154297 stress="0.010117691941559315 -0.001822084654122591 -0.0018731470918282866 -0.001822084654122591 -0.02478308603167534 0.004591182339936495 -0.0018731470918282866 0.004591182339936495 2.624846456455998e-05" pbc="T T T"
Al       1.53818033       0.90928016       2.47247635        0       0.23228557      -0.27447286       1.41733300       0.21201015       0.18702248       0.85530698
Al       0.01802689       1.81430743       5.03506516        1       0.60360824      -0.42930321      -1.11140709       0.03760241      -0.69444090      -0.55142927
N        1.59518015       0.85128047       4.42414641        2       0.09084604       0.02420725      -0.77345575      -0.19470346       0.84070575       0.01228988
N       -0.01452985       1.83034436       1.92467356        3      -0.92673986       0.67956882       0.46752984      -0.05490909      -0.33328712      -0.31616765
4
Lattice="3.128588 0.0 0.0 -1.5642939988088433 2.709436998432005 0.0 0.0 0.0 5.016955" Properties=species:S:1:pos:R:3:spacegroup_kinds:I:1:momenta:R:3:forces:R:3 spacegroup="P 1" unit_cell=conventional occupancy="_JSON {\"0\": {\"Al\": 1}, \"1\": {\"Al\": 1}, \"2\": {\"N\": 1}, \"3\": {\"N\": 1}}" energy=-29.623741149902344 free_energy=-29.623741149902344 stress="0.004300318658351898 -0.008672736585140228 0.0028819849248975515 -0.008672736585140228 -0.006943753454834223 -0.00443448917940259 0.0028819849248975515 -0.00443448917940259 -0.014839131385087967" pbc="T T T"
Al       1.54321205       0.89379621       2.53645986        0      -0.00705438      -0.41529108       0.79444969      -0.25250319       0.39302978      -0.87834549
Al       0.03580898       1.79893950       4.98957807        1       0.09337951      -0.29525121      -0.61191979      -0.16600904       0.14057958       0.62745231
N        1.59619756       0.90645095       4.40111844        2      -0.02189849       1.09350641       0.27120900      -0.08899997      -0.09593688       0.34911230
N       -0.05911262       1.83464209       1.91219258        3      -0.06442664      -0.38296412      -0.45373888       0.50751203      -0.43767262      -0.09821931
