4
Lattice="3.128588 0.0 0.0 -1.5642939988088433 2.709436998432005 0.0 0.0 0.0 5.016955" Properties=species:S:1:pos:R:3:spacegroup_kinds:I:1:forces:R:3 spacegroup="P 1" unit_cell=conventional occupancy="_JSON {\"0\": {\"Al\": 1}, \"1\": {\"Al\": 1}, \"2\": {\"N\": 1}, \"3\": {\"N\": 1}}" energy=-29.673715591430664 free_energy=-29.673715591430664 stress="-0.0022254877258092165 -1.394459559378447e-06 -7.576671734454976e-09 -1.394459559378447e-06 -0.002227555261924863 -1.8526478129388124e-08 -7.576671734454976e-09 -1.8526478129388124e-08 -0.005453808233141899" pbc="T T T"
Al       1.56429556       0.90314476       2.50490041        0      -0.00003474       0.00002000       0.00553246
Al      -0.00000156       1.80629224       5.01337791        1       0.00003442      -0.00002091       0.00552297
N        1.56429556       0.90314476       4.41849749        2      -0.00003628       0.00002172      -0.00553028
N       -0.00000156       1.80629224       1.91001999        3       0.00003643      -0.00002097      -0.00552469
