32
Lattice="6.17176593 0.0 0.0 0.0 8.01859859 0.0 0.0 0.0 13.03281824" Properties=species:S:1:pos:R:3:spacegroup_kinds:I:1:forces:R:3 spacegroup="P 1" unit_cell=conventional occupancy="_JSON {\"0\": {\"Li\": 1}, \"1\": {\"Li\": 1}, \"2\": {\"Li\": 1}, \"3\": {\"Li\": 1}, \"4\": {\"Li\": 1}, \"5\": {\"Li\": 1}, \"6\": {\"Li\": 1}, \"7\": {\"Li\": 1}, \"8\": {\"Li\": 1}, \"9\": {\"Li\": 1}, \"10\": {\"Li\": 1}, \"11\": {\"Li\": 1}, \"12\": {\"P\": 1}, \"13\": {\"P\": 1}, \"14\": {\"P\": 1}, \"15\": {\"P\": 1}, \"16\": {\"S\": 1}, \"17\": {\"S\": 1}, \"18\": {\"S\": 1}, \"19\": {\"S\": 1}, \"20\": {\"S\": 1}, \"21\": {\"S\": 1}, \"22\": {\"S\": 1}, \"23\": {\"S\": 1}, \"24\": {\"S\": 1}, \"25\": {\"S\": 1}, \"26\": {\"S\": 1}, \"27\": {\"S\": 1}, \"28\": {\"S\": 1}, \"29\": {\"S\": 1}, \"30\": {\"S\": 1}, \"31\": {\"S\": 1}}" energy=-140.3463134765625 free_energy=-140.3463134765625 stress="-0.002888622460886836 1.1226713780843056e-08 3.05541036915713e-09 1.1226713780843056e-08 -0.004072260111570358 2.0094732544606586e-09 3.05541036915713e-09 2.0094732544606586e-09 -0.0025936109013855457" pbc="T T T"
Li       2.40166813       0.26892251       4.33377963        0      -0.01548930       0.00236078       0.00063607
Li       3.77009792       7.74967599       8.69903848        1       0.01548968      -0.00236059      -0.00063417
Li       5.48755105       7.74967606       2.18262943        2      -0.01549447      -0.00236094      -0.00063215
Li       0.68421479       0.26892248      10.85018871        3       0.01549154       0.00236111       0.00063252
Li       3.77009786       4.27822190       8.69903841        4       0.01548856       0.00235846      -0.00063441
Li       2.40166815       3.74037677       4.33377964        5      -0.01548980      -0.00235952       0.00063396
Li       0.68421480       3.74037679      10.85018871        6       0.01549150      -0.00236052       0.00063179
Li       5.48755103       4.27822189       2.18262938        7      -0.01549216       0.00236051      -0.00063000
Li       3.08588290      -0.00000013       0.00000013        8       0.00000022      -0.00000061      -0.00000188
Li       0.00000003      -0.00000009       6.51640925        9       0.00000063       0.00000055      -0.00000121
Li       3.08588292       4.00929949       0.00000010       10      -0.00000171      -0.00000194       0.00000151
Li       0.00000002       4.00929927       6.51640912       11       0.00000109       0.00000070       0.00000039
P        0.93932957       2.00464924       1.16793468       12      -0.00066841       0.00001337       0.03303242
P        5.23243630       6.01394887      11.86488424       13       0.00067467       0.00000485      -0.03305620
P        4.02521219       6.01394885       5.34847525       14      -0.00065114       0.00000064      -0.03306224
P        2.14655381       2.00464965       7.68434320       15       0.00065495       0.00000105       0.03305364
S        5.07612370       2.00464964       1.30682518       16       0.00280322      -0.00000013       0.01274880
S        1.09564244       6.01394889      11.72599300       17      -0.00280838       0.00000053      -0.01274739
S        1.99024102       6.01394896       5.20958386       18       0.00279254       0.00000028      -0.01274467
S        4.18152504       2.00464973       7.82323420       19      -0.00279371       0.00000021       0.01274735
S        1.68772173       2.00464971      12.25093567       20       0.03396978      -0.00000079       0.02525184
S        4.48404413       6.01394887       0.78188256       21      -0.03397351       0.00000038      -0.02523723
S        4.77360472       6.01394893       7.29829158       22       0.03397224       0.00000104      -0.02523681
S        1.39816136       2.00464966       5.73452693       23      -0.03397345      -0.00000047       0.02524010
S        1.68016697       0.28147988       2.00960376       24       0.02273591      -0.00259852      -0.01691658
S        4.49159899       7.73711926      11.02321403       25      -0.02272979       0.00258625       0.01692498
S        4.76604990       7.73711923       4.50680507       26       0.02272840       0.00258117       0.01692730
S        1.40571579       0.28147956       8.52601302       27      -0.02272828      -0.00258658      -0.01692846
S        4.49159896       4.29077891      11.02321428       28      -0.02273288      -0.00259109       0.01692308
S        1.68016702       3.72781963       2.00960396       29       0.02273110       0.00258656      -0.01692325
S        1.40571577       3.72781975       8.52601314       30      -0.02272798       0.00258577      -0.01692810
S        4.76604993       4.29077870       4.50680502       31       0.02272894      -0.00258252       0.01692887
