4
Lattice="3.128588 0.0 0.0 -1.5642939988088433 2.709436998432005 0.0 0.0 0.0 5.016955" Properties=species:S:1:pos:R:3:spacegroup_kinds:I:1:forces:R:3 spacegroup="P 1" unit_cell=conventional occupancy="_JSON {\"0\": {\"Al\": 1}, \"1\": {\"Al\": 1}, \"2\": {\"N\": 1}, \"3\": {\"N\": 1}}" energy=-29.673715591430664 free_energy=-29.673715591430664 stress="-0.0022252616472542286 -1.4083683481658227e-06 -5.483732579136813e-08 -1.4083683481658227e-06 -0.0022273720242083073 -7.009872859953248e-08 -5.483732579136813e-08 -7.009872859953248e-08 -0.005453682504594326" pbc="T T T"
Al       1.56429556       0.90314476       2.50490041        0      -0.00003399       0.00002011       0.00553289
Al      -0.00000156       1.80629224       5.01337791        1       0.00003562      -0.00001883       0.00552247
N        1.56429556       0.90314476       4.41849749        2      -0.00003753       0.00001967      -0.00552965
N       -0.00000156       1.80629224       1.91001999        3       0.00003586      -0.00002091      -0.00552540
