32
Lattice="6.17176593 0.0 0.0 0.0 8.01859859 0.0 0.0 0.0 13.03281824" Properties=species:S:1:pos:R:3:spacegroup_kinds:I:1:momenta:R:3:forces:R:3 spacegroup="P 1" unit_cell=conventional occupancy="_JSON {\"0\": {\"Li\": 1}, \"1\": {\"Li\": 1}, \"2\": {\"Li\": 1}, \"3\": {\"Li\": 1}, \"4\": {\"Li\": 1}, \"5\": {\"Li\": 1}, \"6\": {\"Li\": 1}, \"7\": {\"Li\": 1}, \"8\": {\"Li\": 1}, \"9\": {\"Li\": 1}, \"10\": {\"Li\": 1}, \"11\": {\"Li\": 1}, \"12\": {\"P\": 1}, \"13\": {\"P\": 1}, \"14\": {\"P\": 1}, \"15\": {\"P\": 1}, \"16\": {\"S\": 1}, \"17\": {\"S\": 1}, \"18\": {\"S\": 1}, \"19\": {\"S\": 1}, \"20\": {\"S\": 1}, \"21\": {\"S\": 1}, \"22\": {\"S\": 1}, \"23\": {\"S\": 1}, \"24\": {\"S\": 1}, \"25\": {\"S\": 1}, \"26\": {\"S\": 1}, \"27\": {\"S\": 1}, \"28\": {\"S\": 1}, \"29\": {\"S\": 1}, \"30\": {\"S\": 1}, \"31\": {\"S\": 1}}" energy=-139.3604278564453 free_energy=-139.3604278564453 stress="-0.0030957432463765144 -0.0012608846882358193 0.0022183305118232965 -0.0012608846882358193 -0.005579986143857241 0.0012610647827386856 0.0022183305118232965 0.0012610647827386856 -0.0020058713853359222" pbc="T T T"
Li       2.42084468       0.40833666       4.34607868        0       0.31008466       0.04462222       0.22496042       0.26669213      -0.01086563      -0.20781587
Li       4.09952652       7.98390388       8.79362665        1      -0.19067882      -0.37001743       0.42731359      -0.05811953      -0.24145153      -0.27019179
Li       5.53084981       7.78444613       1.80650806        2      -0.22970829       0.48445249      -0.04871878       0.09884527      -0.18667950       0.30623209
Li       0.72479912       0.30408887      10.96130237        3      -0.08295192       0.01308264      -0.21436817      -0.15301722      -0.40719333      -0.21139278
Li       3.29856790       4.64496602       8.72106480        4      -0.36464581       0.50747984      -1.01237639       0.20783967       0.01164598      -0.15844660
Li       2.40570245       3.87419044       4.65884700        5      -0.01913897      -0.39682889       0.21206366       0.15074509       0.21959820      -0.20653033
Li       0.45145677       3.52869728      10.98375353        6       0.44102791      -0.13450283      -0.35061858      -0.06852574      -0.04020346       0.05628030
Li       5.42890540       4.07877667       2.09355016        7      -0.20022675       0.11542295       0.22128662       0.01355068       0.12658924       0.13693717
Li       3.02226258      -0.01562959      -0.06083277        8      -0.43848109       0.03647077       0.10747460       0.05613373      -0.15750694       0.19173075
Li       0.47007603      -0.22280769       6.16777321        9      -0.10721395       0.23385196       0.42487146      -0.30184335       0.06294958       0.27146900
Li       2.76242717       4.29641333       0.08336556       10      -0.01885808      -0.36791419       0.35381989      -0.15436894      -0.09200896      -0.37023953
Li      -0.44523723       3.52902561       6.80803814       11       0.09583978       0.22604818      -0.45275790       0.01471970       0.28987062      -0.30430293
P        1.03521561       2.02846399       1.09457697       12      -0.11473000      -0.65587581      -0.27717313       0.20795967      -0.09689407       0.93987644
P        5.03365426       5.97291759      11.86693445       13      -0.28619641      -1.15383844      -0.80265702       0.69217384      -1.01091981      -0.59256858
P        4.15951866       6.13426619       5.41136419       14       0.16820476      -0.18536050      -0.58786777       1.00801158       0.14088228      -0.43208864
P        2.06182254       1.97488962       7.75079844       15       1.02708211      -1.74720943      -1.54172015      -0.11321853      -0.07347224      -0.01016322
S        5.18835898       1.95609432       0.89769886       16      -0.52278595      -1.70481529      -0.56506091      -0.13700266       0.32209092       0.40599781
S        0.90063244       5.74697163      11.70675207       17      -0.46826599      -0.79783038       1.75822162       0.29926428       0.62227762       0.18115577
S        2.12914902       6.22793726       5.44469102       18       1.90395731       0.55095150       0.72103125       0.05651386      -0.51151133      -0.10995027
S        4.11052896       2.12906470       7.83700011       19      -0.46635521       1.68636107       1.03354391      -0.50366712      -0.08806998       0.30652741
S        1.80079870       1.88938355      12.25437556       20       0.15178749       0.50093710       1.23691098       0.50693929       0.78308111      -0.70007288
S        4.34805616       5.89997587       0.76342487       21       1.01054036       1.19553706       0.04927590       0.01125014       0.35301423       0.42029619
S        5.10356737       6.08411373       7.30430523       22       1.27701104      -0.96057707       0.50091070      -0.72769058       0.03134926      -0.38370305
S        1.40947874       2.10162586       5.73464960       23      -1.03903788       1.11608790       0.28154680      -0.15833238      -0.32843834       0.59688950
S        1.81748170       0.35381884       1.97842098       24       0.14376946       0.09707946      -2.18628251      -0.29427263      -0.37052199       0.21582909
S        4.48616743       7.75919516      11.10193142       25      -0.19676621      -0.60737960      -1.08140294      -0.09888846       0.45276856      -0.09779452
S        4.84503530       7.77754185       4.31310767       26      -0.02671100       0.47685212      -0.12842057      -0.05854609      -0.27778858       0.51477373
S        1.34608020       0.21440399       8.56477090       27      -0.17297144      -0.71797689      -0.79597026       0.53001446       0.27521008      -0.28551030
S        4.30534738       4.33184493      10.86692880       28      -0.23797201       1.91217336       0.92418483      -0.30833054       0.10510963       0.36739755
S        1.77367625       3.67260003       2.16914683       29       0.42484141      -0.27208909       1.59222789      -0.65623868      -0.27490574      -0.57535571
S        1.15218363       3.54712848       8.70544907       30      -1.50337653       0.88194756      -0.56811336       0.13727614       0.10850871      -0.32503444
S        4.85611297       4.36287367       4.52240032       31      -0.26707403      -0.00714227       0.54386433      -0.46586734       0.26348570       0.32976884
