32
Lattice="6.17176593 0.0 0.0 0.0 8.01859859 0.0 0.0 0.0 13.03281824" Properties=species:S:1:pos:R:3:spacegroup_kinds:I:1:momenta:R:3:forces:R:3 spacegroup="P 1" unit_cell=conventional occupancy="_JSON {\"0\": {\"Li\": 1}, \"1\": {\"Li\": 1}, \"2\": {\"Li\": 1}, \"3\": {\"Li\": 1}, \"4\": {\"Li\": 1}, \"5\": {\"Li\": 1}, \"6\": {\"Li\": 1}, \"7\": {\"Li\": 1}, \"8\": {\"Li\": 1}, \"9\": {\"Li\": 1}, \"10\": {\"Li\": 1}, \"11\": {\"Li\": 1}, \"12\": {\"P\": 1}, \"13\": {\"P\": 1}, \"14\": {\"P\": 1}, \"15\": {\"P\": 1}, \"16\": {\"S\": 1}, \"17\": {\"S\": 1}, \"18\": {\"S\": 1}, \"19\": {\"S\": 1}, \"20\": {\"S\": 1}, \"21\": {\"S\": 1}, \"22\": {\"S\": 1}, \"23\": {\"S\": 1}, \"24\": {\"S\": 1}, \"25\": {\"S\": 1}, \"26\": {\"S\": 1}, \"27\": {\"S\": 1}, \"28\": {\"S\": 1}, \"29\": {\"S\": 1}, \"30\": {\"S\": 1}, \"31\": {\"S\": 1}}" energy=-140.31869506835938 free_energy=-140.31869506835938 stress="-0.007170621771365404 -3.4084020050784147e-09 3.251788394109667e-09 -3.4084020050784147e-09 -0.008259407244622707 1.6595587126744249e-09 3.251788394109667e-09 1.6595587126744249e-09 -0.005266313441097736" pbc="T T T"
Li       2.40329652       0.26860172       4.33400832        0       0.68603051       0.16946497       0.45505590      -0.02603553       0.00549150      -0.00432121
Li       3.76846941       7.74999687       8.69880992        1       1.05330044       0.74853790      -0.34399483       0.02603651      -0.00549149       0.00432289
Li       5.48917948       7.74999687       2.18240080        2       0.52456762      -0.13258394       0.04531988      -0.02603617      -0.00549039       0.00432279
Li       0.68258645       0.26860172      10.85041744        3       0.06353884       0.06011300       0.65331090       0.02603523       0.00549193      -0.00431975
Li       3.76846941       4.27790102       8.69880992        4       0.32458389      -0.01156296       0.25357451       0.02603655       0.00549161       0.00432248
Li       2.40329652       3.74069757       4.33400832        5       0.14772573       0.64572309      -0.03922472      -0.02603606      -0.00549149      -0.00432175
Li       0.68258645       3.74069757      10.85041744        6       0.10551254      -0.37444450      -1.07017222       0.02603612      -0.00549202      -0.00431983
Li       5.48917948       4.27790102       2.18240080        7       0.31105882       0.30965958      -0.25400600      -0.02603626       0.00549107       0.00432303
Li       3.08588297       0.00000000       0.00000000        8       0.92177375      -0.62813396       0.05071279      -0.00000078      -0.00000177      -0.00000108
Li       0.00000000       0.00000000       6.51640912        9      -0.18113935       0.70772238       0.65476038      -0.00000001      -0.00000060       0.00000023
Li       3.08588297       4.00929929       0.00000000       10       0.09855456       0.16968942      -0.33130044       0.00000024       0.00000070      -0.00000027
Li       0.00000000       4.00929929       6.51640912       11      -0.86452083      -0.11106968       0.10754015       0.00000049      -0.00000015      -0.00000027
P        0.94051010       2.00464965       1.16601784       12       1.02623011       1.32958291      -0.21317026      -0.02067249      -0.00000012       0.02376025
P        5.23125583       6.01394894      11.86680040       13      -0.19186410      -1.49733199      -0.95631150       0.02066630       0.00000206      -0.02375945
P        4.02639307       6.01394894       5.35039128       14      -1.33481321       1.56924537      -0.14642714      -0.02066789       0.00000235      -0.02375695
P        2.14537286       2.00464965       7.68242696       15      -0.65662154      -1.23650552       0.88561043       0.02066912      -0.00000017       0.02375685
S        5.08970823       2.00464965       1.30575389       16      -1.62252505      -0.43759723      -0.59205685      -0.25450522      -0.00000039       0.01679121
S        1.08205770       6.01394894      11.72706435       17       0.45453900      -0.55953489      -0.84052413       0.25450799      -0.00000055      -0.01679159
S        2.00382526       6.01394894       5.21065523       18       0.21968842       0.39907330       0.34821336      -0.25450569      -0.00000020      -0.01679141
S        4.16794067       2.00464965       7.82216301       19       0.01714742      -0.91190506      -0.11528309       0.25450110      -0.00000084       0.01679058
S        1.68132889       2.00464965      12.25955363       20      -0.99971190      -0.50030776      -0.59534663       0.10912266       0.00000021      -0.16719596
S        4.49043704       6.01394894       0.77326461       21      -1.26473272       0.00980590      -0.03139629      -0.10912052       0.00000024       0.16718090
S        4.76721186       6.01394894       7.28967373       22      -1.32838564       0.06236751      -0.49790997       0.10912090      -0.00000007       0.16717985
S        1.40455407       2.00464965       5.74314451       23      -0.16828840       0.73284588       0.27972489      -0.10911988      -0.00000012      -0.16718188
S        1.67233151       0.29287049       2.00524453       24       0.74507742      -1.02978256       0.49366165       0.13957736      -0.21272573       0.08709957
S        4.49943442       7.72572810      11.02757371       25      -0.33952565      -1.26062350      -0.14870765      -0.13957538       0.21272387      -0.08709252
S        4.75821447       7.72572810       4.51116459       26       0.16331213      -0.23892709      -0.69123755       0.13957503       0.21272476      -0.08709101
S        1.41355146       0.29287049       8.52165365       27       0.36826909       0.40714833      -1.32646071      -0.13957621      -0.21272059       0.08709157
S        4.49943442       4.30216979      11.02757371       28       1.30930438       1.32829297       1.39965136      -0.13957775      -0.21272571      -0.08709347
S        1.67233151       3.71642880       2.00524453       29      -0.10487160      -0.87625167       1.20020727       0.13957913       0.21272685       0.08709873
S        1.41355146       3.71642880       8.52165365       30      -0.46734235       1.11530487       0.40230220      -0.13957608       0.21272098       0.08709092
S        4.75821447       4.30216979       4.51116459       31       0.98412767       0.04198493       0.96388429       0.13957697      -0.21272564      -0.08709329
32
Lattice="6.17176593 0.0 0.0 0.0 8.01859859 0.0 0.0 0.0 13.03281824" Properties=species:S:1:pos:R:3:spacegroup_kinds:I:1:momenta:R:3:forces:R:3 spacegroup="P 1" unit_cell=conventional occupancy="_JSON {\"0\": {\"Li\": 1}, \"1\": {\"Li\": 1}, \"2\": {\"Li\": 1}, \"3\": {\"Li\": 1}, \"4\": {\"Li\": 1}, \"5\": {\"Li\": 1}, \"6\": {\"Li\": 1}, \"7\": {\"Li\": 1}, \"8\": {\"Li\": 1}, \"9\": {\"Li\": 1}, \"10\": {\"Li\": 1}, \"11\": {\"Li\": 1}, \"12\": {\"P\": 1}, \"13\": {\"P\": 1}, \"14\": {\"P\": 1}, \"15\": {\"P\": 1}, \"16\": {\"S\": 1}, \"17\": {\"S\": 1}, \"18\": {\"S\": 1}, \"19\": {\"S\": 1}, \"20\": {\"S\": 1}, \"21\": {\"S\": 1}, \"22\": {\"S\": 1}, \"23\": {\"S\": 1}, \"24\": {\"S\": 1}, \"25\": {\"S\": 1}, \"26\": {\"S\": 1}, \"27\": {\"S\": 1}, \"28\": {\"S\": 1}, \"29\": {\"S\": 1}, \"30\": {\"S\": 1}, \"31\": {\"S\": 1}}" energy=-139.85145568847656 free_energy=-139.85145568847656 stress="-0.004872222896665335 -0.004560519941151142 -0.0014461184618994594 -0.004560519941151142 -0.011575751006603241 -0.0001037458932842128 -0.0014461184618994594 -0.0001037458932842128 -0.007676263805478811" pbc="T T T"
Li       2.48289776       0.34401444       4.37236655        0       0.28899100       0.68957721      -0.00169339      -0.19003907      -0.04943708      -0.12983586
Li       3.95700486       7.91212515       8.66410357        1       1.05789802       0.94063051      -0.15219643      -0.16869247      -0.55906487       0.20888017
Li       5.52794159       7.73539939       2.16950892        2       0.07521844       0.09733834       0.17289945      -0.01106599       0.03175682      -0.00903926
Li       0.72738396       0.28274569      10.93116158        3       0.21507834       0.21386437       0.50759237      -0.11938588      -0.17338820      -0.13006076
Li       3.82463878       4.26580193       8.76238935        4       0.15403434      -0.29279858       0.37248715      -0.09703525       0.04172105      -0.12144397
Li       2.41057188       3.83173990       4.34719186        5       0.04595141       0.41823962       0.01393008       0.00225602      -0.12729670       0.08865020
Li       0.68663847       3.71369328      10.66337363        6      -0.00333067      -0.00765462      -0.68015730      -0.01879934      -0.02393827       0.54257786
Li       5.56431238       4.32822814       2.14259757        7       0.56537927       0.34987740      -0.26732434      -0.32256624      -0.03703709       0.10970058
Li       3.23127605      -0.08778585       0.02191346        8       0.67742446      -0.06270837       0.28848538      -0.27209863       0.28407568       0.12037482
Li      -0.00097263       0.09404304       6.59035481        9      -0.14037127       0.70858514      -0.02184103      -0.14695430      -0.11771291      -0.32876965
Li       3.04321333       4.05475268      -0.05865588       10      -0.41823550       0.03262270      -0.27409901      -0.12201996      -0.02710725       0.15079582
Li      -0.08920109       3.98560855       6.52633755       11      -0.27270963      -0.00599750       0.02762008       0.09120932      -0.03416913       0.02722655
P        0.93886069       2.03968603       1.17008468       12      -0.69927677       0.44342501       0.25830642      -0.34173927      -1.38760674       0.02974710
P        5.25310086       5.96056607      11.84589152       13       1.08650015      -1.14324865       0.24910237       0.55797201       1.43473029       1.00023234
P        4.01021353       6.06167825       5.34916047       14       0.34558604       1.01622973      -0.23513662       0.04386562      -0.80675834      -0.47450504
P        2.12266940       1.98144093       7.70847127       15      -0.67644998       0.17210949       0.70620262       0.05696456       1.10707760      -0.47991300
S        5.04377264       1.99234009       1.27345681       16      -0.71500417      -0.25227945      -0.79921641       0.46785003       0.10527126       0.09393145
S        1.11991506       5.99235982      11.68994273       17       1.16449209      -0.75508051      -0.87567312      -0.08293259      -0.08237652       0.04948894
S        1.99568568       6.04006599       5.22318992       18      -0.41291922       0.77724065       0.36479489      -0.34480986       0.12721471      -0.07461220
S        4.15380733       1.98703452       7.82697725       19      -0.00818293      -0.07255688       0.36299121       0.39338252       0.51654804      -0.09031370
S        1.65689512       1.98376901      12.24612314       20      -0.09281420      -0.84930985      -0.77977221       0.20374778       0.33653480       0.09697472
S        4.44564071       6.01555731       0.79035447       21      -1.55557234      -0.43829784       0.51452655       0.35518366      -0.19717735      -0.25968945
S        4.72880831       6.01343050       7.25226826       22      -0.80884015      -0.08664361      -1.39301322       0.32852897       0.17249329       0.86849105
S        1.40139023       2.01812556       5.75472999       23      -0.14694639       0.09661798       0.73043843      -0.07120896       0.11727576      -0.07152249
S        1.70761114       0.24497905       2.01362023       24       1.54115971      -0.96827972      -0.60418184      -0.21314996       0.71859527      -0.24649616
S        4.48635140       7.67501107      11.02793678       25      -0.38484965      -1.21565714       0.24611163       0.07396161       0.27234393      -0.19900809
S        4.76106124       7.71926691       4.48626942       26      -0.42491553      -0.17424235      -0.58558343       0.36821145       0.53708827      -0.10369901
S        1.41833397       0.30476229       8.48566139       27      -0.22709683      -0.07255496      -0.10344314      -0.28511387      -0.93689919       0.80665952
S        4.53061527       4.32281484      11.07546080       28       0.13574225      -0.02798819       0.59505978      -0.65197736      -1.65613747      -0.82190114
S        1.65346775       3.69975136       2.05544046       29      -0.56918593      -0.24680280       1.56641565       0.37587658       0.42091352      -0.03704831
S        1.40231191       3.75513545       8.52864087       30       0.05424663       0.60102342      -0.07895857       0.25104004      -0.18760684      -0.44867268
S        4.77674006       4.29937460       4.53213756       31       0.14899901       0.11471948      -0.12467397      -0.11046109       0.18007341      -0.16720006
32
Lattice="6.17176593 0.0 0.0 0.0 8.01859859 0.0 0.0 0.0 13.03281824" Properties=species:S:1:pos:R:3:spacegroup_kinds:I:1:momenta:R:3:forces:R:3 spacegroup="P 1" unit_cell=conventional occupancy="_JSON {\"0\": {\"Li\": 1}, \"1\": {\"Li\": 1}, \"2\": {\"Li\": 1}, \"3\": {\"Li\": 1}, \"4\": {\"Li\": 1}, \"5\": {\"Li\": 1}, \"6\": {\"Li\": 1}, \"7\": {\"Li\": 1}, \"8\": {\"Li\": 1}, \"9\": {\"Li\": 1}, \"10\": {\"Li\": 1}, \"11\": {\"Li\": 1}, \"12\": {\"P\": 1}, \"13\": {\"P\": 1}, \"14\": {\"P\": 1}, \"15\": {\"P\": 1}, \"16\": {\"S\": 1}, \"17\": {\"S\": 1}, \"18\": {\"S\": 1}, \"19\": {\"S\": 1}, \"20\": {\"S\": 1}, \"21\": {\"S\": 1}, \"22\": {\"S\": 1}, \"23\": {\"S\": 1}, \"24\": {\"S\": 1}, \"25\": {\"S\": 1}, \"26\": {\"S\": 1}, \"27\": {\"S\": 1}, \"28\": {\"S\": 1}, \"29\": {\"S\": 1}, \"30\": {\"S\": 1}, \"31\": {\"S\": 1}}" energy=-139.6019744873047 free_energy=-139.6019744873047 stress="0.0007599349482916296 -0.003114430932328105 -0.0013211928308010101 -0.003114430932328105 -0.007642696145921946 0.0006583580980077386 -0.0013211928308010101 0.0006583580980077386 -0.006442185491323471" pbc="T T T"
Li       2.48031567       0.47328570       4.30252585        0      -0.47380227       0.81796599      -0.56434288      -0.07824917      -0.22774449      -0.04280850
Li       4.11254654       7.97846322       8.64666834        1       0.80481484      -0.48847343       0.37201731      -0.24479374      -0.97883087       0.39508617
Li       5.58318918       7.77928808       2.16546244        2       0.01428327       0.02190638       0.00927644      -0.08035789      -0.10108828      -0.02334556
Li       0.72166481       0.29259822      11.02730161        3      -0.21735572      -0.11377814       0.41699590      -0.28078419      -0.41362104      -0.39118189
Li       3.84636646       4.24531491       8.76533363        4      -0.02314253       0.16445496      -0.15839182      -0.10947859       0.12721385      -0.12069269
Li       2.41863365       3.90071265       4.34589385        5      -0.00699298       0.33205570      -0.00025779      -0.05480197      -0.17424816       0.17638689
Li       0.70103660       3.73218809      10.58693353        6       0.14068219       0.22461369       0.12642930      -0.17177647      -0.09709394       0.89665318
Li       5.58528352       4.39617020       2.11909595        7      -0.44721228       0.41905233      -0.09682520      -0.35916668      -0.09322043       0.16045570
Li       3.31209571      -0.05332439       0.04786682        8       0.34755168       0.57551958       0.02168191      -0.32166946       0.40156513       0.05922049
Li      -0.03035535       0.18377066       6.56623511        9      -0.44333918       0.25627645      -0.39630300      -0.09509961      -0.17167017      -0.29053068
Li       2.94473697       4.04688116      -0.11854383       10      -0.72890611      -0.22603340      -0.24309684      -0.07929400       0.04146929       0.11881562
Li      -0.16348000       3.98259952       6.55805089       11      -0.37048461       0.10072522       0.13075020       0.17225985      -0.05933638       0.03721641
P        0.91263446       2.03085905       1.18543764       12      -0.39162077      -0.84292170      -0.14341095       0.15100765      -1.23308682      -0.36621958
P        5.28221787       5.95366578      11.87790467       13       0.92285345       0.65827607       1.12842623      -0.14855847       0.58444178       0.32492781
P        4.02088618       6.06925315       5.32288183       14       0.31579747      -0.18791220      -0.92549502      -0.48548263      -0.62856662      -0.07539359
P        2.12159123       1.99790067       7.71941214       15      -0.15690336      -0.01608106       0.74291335      -0.10433578       0.40639025      -0.30106226
S        5.02344645       1.98603841       1.26735385       16      -0.39395303       0.30438062      -0.25704103       0.59086287       0.13501708       0.15870227
S        1.14882845       5.96912610      11.68403236       17       0.29665246      -0.84153812       0.51460666      -0.26944345      -0.03594388       0.13699931
S        1.97171222       6.05732589       5.26733631       18      -0.18154738       0.42246905       0.92773841       0.23734438       0.23369026      -0.21314830
S        4.17314157       1.97453271       7.83513252       19       0.76073787      -0.46123058       0.34286969       0.15402180       0.93806404      -0.29736850
S        1.66276574       1.93723443      12.21934324       20       0.22155799      -1.56512837      -0.62829374       0.09927114       0.75357997       0.78203535
S        4.41180906       6.02875099       0.80175421       21      -0.42941830       0.56479047       0.19475798       0.58502758      -0.28689539      -0.27981058
S        4.72485044       6.01335913       7.24533521       22       0.34097639       0.00810019       0.51423835       0.31326163       0.24256621       0.66852969
S        1.39295258       2.05379062       5.76512706       23      -0.11201944       1.52346841       0.71857487      -0.00231476       0.17714047      -0.06840653
S        1.75030235       0.22778450       1.98075027       24       0.73145939       0.22426764      -1.43506143      -0.39994326       0.87292838      -0.16918862
S        4.44739875       7.63781564      11.02639699       25      -1.02330365      -0.70052304      -0.16452841       0.37881881       0.12590989      -0.08100847
S        4.77892813       7.71884462       4.44410097       26       1.02051476       0.70329701      -1.30330676       0.19542235       0.51554745      -0.03292625
S        1.39802802       0.28952850       8.49012149       27      -0.56933887      -0.65647568       0.04902669       0.00324744      -0.29336894       0.56053114
S        4.52461535       4.27746386      11.06602802       28       0.27116678      -1.82689181      -0.61093257      -0.12915356      -0.69028598      -0.24384785
S        1.64472013       3.69639211       2.10219365       29      -0.20110162      -0.08875028       0.64929090       0.18967029       0.03198716      -0.39975306
S        1.41075547       3.77319818       8.52525502       30       0.01993661       0.38916611       0.17890734       0.39979935      -0.16565660      -0.71649408
S        4.77484932       4.30608652       4.53646116       31      -0.03854306       0.30495193      -0.11121407      -0.05531163       0.06314651      -0.36237296
32
Lattice="6.17176593 0.0 0.0 0.0 8.01859859 0.0 0.0 0.0 13.03281824" Properties=species:S:1:pos:R:3:spacegroup_kinds:I:1:momenta:R:3:forces:R:3 spacegroup="P 1" unit_cell=conventional occupancy="_JSON {\"0\": {\"Li\": 1}, \"1\": {\"Li\": 1}, \"2\": {\"Li\": 1}, \"3\": {\"Li\": 1}, \"4\": {\"Li\": 1}, \"5\": {\"Li\": 1}, \"6\": {\"Li\": 1}, \"7\": {\"Li\": 1}, \"8\": {\"Li\": 1}, \"9\": {\"Li\": 1}, \"10\": {\"Li\": 1}, \"11\": {\"Li\": 1}, \"12\": {\"P\": 1}, \"13\": {\"P\": 1}, \"14\": {\"P\": 1}, \"15\": {\"P\": 1}, \"16\": {\"S\": 1}, \"17\": {\"S\": 1}, \"18\": {\"S\": 1}, \"19\": {\"S\": 1}, \"20\": {\"S\": 1}, \"21\": {\"S\": 1}, \"22\": {\"S\": 1}, \"23\": {\"S\": 1}, \"24\": {\"S\": 1}, \"25\": {\"S\": 1}, \"26\": {\"S\": 1}, \"27\": {\"S\": 1}, \"28\": {\"S\": 1}, \"29\": {\"S\": 1}, \"30\": {\"S\": 1}, \"31\": {\"S\": 1}}" energy=-139.67422485351562 free_energy=-139.67422485351562 stress="0.0023044126573950052 0.00014862125681247562 -0.0010892674326896667 0.00014862125681247562 -0.0019209209131076932 0.001728677423670888 -0.0010892674326896667 0.001728677423670888 -0.005061792675405741" pbc="T T T"
Li       2.41716737       0.56717764       4.23511379        0      -0.24316679       0.38326651      -0.11969769       0.10543254      -0.31220853       0.03997305
Li       4.21536197       7.81194707       8.77220319        1       0.24990970      -1.07695728       0.65813591      -0.31072354      -0.02633091      -0.27713984
Li       5.58513093       7.78163573       2.18113293        2      -0.24789353      -0.10856223       0.30404358      -0.04384239      -0.08904125      -0.17777623
Li       0.68127679       0.20433848      11.02590972        3      -0.10718555      -0.67397239      -0.50429875      -0.11244615      -0.08726448      -0.36591938
Li       3.81614243       4.25059735       8.75399621        4      -0.39647829      -0.11634534      -0.15569983      -0.02037331       0.10433626      -0.07483124
Li       2.41436842       3.94522875       4.36897786        5      -0.10484708       0.17900252       0.35438425      -0.14100687      -0.25083184       0.09354182
Li       0.70112140       3.75225761      10.69684608        6       0.18377396       0.06491631       0.94069572      -0.10901961      -0.21237910       0.29775488
Li       5.54971424       4.46008396       2.11242250        7      -0.16375668       0.27429642      -0.06063459      -0.09917395      -0.26759738       0.18544571
Li       3.28559792       0.09395085       0.04294363        8      -0.47052384       0.77509399      -0.33848528      -0.02384430       0.17906658       0.00389011
Li      -0.11640977       0.19432132       6.50458580        9      -0.49862285       0.11702091      -0.24996422       0.01344363      -0.08454026      -0.06164011
Li       2.82128130       4.04443822      -0.16803843       10      -0.41919197       0.10921043      -0.09182586       0.07627951       0.12336328       0.13109696
Li      -0.22292865       3.95283669       6.60014953       11      -0.03189724      -0.31461996       0.03622987       0.18002439      -0.06705642       0.09881398
P        0.89908642       1.96492081       1.15658684       12      -0.21149151      -1.75087310      -0.85157285       0.68522763       0.43233526      -0.04432596
P        5.30410952       5.99199247      11.92618643       13      -0.32196966       0.93073021       1.43612445      -1.08942914      -1.01297009      -0.28361887
P        4.02148638       6.05314393       5.29181771       14      -0.02235427      -0.24922352      -0.44492127      -0.37181756       0.32909453       0.48314077
P        2.10729988       1.99903544       7.72271861       15       0.17223660       0.60965445      -0.41098900       0.30393958       0.17326030       0.07507431
S        5.05645934       2.01592260       1.26613645       16       1.40230410       0.75711397      -0.31037830      -0.02694576      -0.09521103       0.11979493
S        1.15077109       5.93481024      11.72052238       17      -0.02336946      -0.89135319       1.05525881      -0.01057044       0.18911925       0.14518031
S        1.96431737       6.07402861       5.32173304       18       0.04617251       0.64332065       1.42706491       0.54631788       0.27184963      -0.38477725
S        4.18887456       1.96664198       7.83014973       19       0.37369562       0.09392753      -0.16948322      -0.26042312       0.26153338      -0.05432916
S        1.67429204       1.89853360      12.21085975       20       0.19552165      -1.04262076       0.42830190      -0.05563704       0.59883571       0.41139311
S        4.40633203       6.05673878       0.80530739       21      -0.01343243       0.29850945       0.07385098       0.45879829      -0.04874511      -0.25686190
S        4.73136788       6.02925928       7.26188723       22       0.25117913       0.82306357       0.22220777       0.22325215       0.07717562      -0.04867514
S        1.37665527       2.07867844       5.78574217       23      -0.56332349       0.32992101       0.56782595      -0.07685512       0.15704781      -0.27653182
S        1.76573146       0.25443657       1.91089425       24      -0.19798942       0.73509258      -1.95253667      -0.27242619       0.04850292       0.31851035
S        4.41323498       7.60926395      11.03105311       25      -1.12581872      -0.69278070       0.47241299       0.47533894       0.27040499       0.21328607
S        4.82871193       7.73217790       4.38025662       26       0.91413571       0.72750149      -1.47079058      -0.41146156      -0.05840068       0.44026434
S        1.37662192       0.27293077       8.49053370       27      -0.44103411      -0.50880517       0.33150173       0.05645345      -0.02386434       0.35862717
S        4.52366132       4.22742238      11.04093050       28       0.19297601      -1.34212561      -0.62731659       0.28247476       0.50409043       0.46702206
S        1.64359864       3.70028001       2.11540267       29       0.07466101      -0.02899206      -0.25044644      -0.11074427      -0.55871910      -0.77870202
S        1.44109294       3.79204432       8.53237320       30       1.48047160       0.73107417      -0.06667876       0.12341999      -0.30600053      -0.30983216
S        4.78117054       4.32263091       4.53620815       31       0.06730929       0.21451513      -0.23231890       0.01633757      -0.21885464      -0.48784879
32
Lattice="6.17176593 0.0 0.0 0.0 8.01859859 0.0 0.0 0.0 13.03281824" Properties=species:S:1:pos:R:3:spacegroup_kinds:I:1:momenta:R:3:forces:R:3 spacegroup="P 1" unit_cell=conventional occupancy="_JSON {\"0\": {\"Li\": 1}, \"1\": {\"Li\": 1}, \"2\": {\"Li\": 1}, \"3\": {\"Li\": 1}, \"4\": {\"Li\": 1}, \"5\": {\"Li\": 1}, \"6\": {\"Li\": 1}, \"7\": {\"Li\": 1}, \"8\": {\"Li\": 1}, \"9\": {\"Li\": 1}, \"10\": {\"Li\": 1}, \"11\": {\"Li\": 1}, \"12\": {\"P\": 1}, \"13\": {\"P\": 1}, \"14\": {\"P\": 1}, \"15\": {\"P\": 1}, \"16\": {\"S\": 1}, \"17\": {\"S\": 1}, \"18\": {\"S\": 1}, \"19\": {\"S\": 1}, \"20\": {\"S\": 1}, \"21\": {\"S\": 1}, \"22\": {\"S\": 1}, \"23\": {\"S\": 1}, \"24\": {\"S\": 1}, \"25\": {\"S\": 1}, \"26\": {\"S\": 1}, \"27\": {\"S\": 1}, \"28\": {\"S\": 1}, \"29\": {\"S\": 1}, \"30\": {\"S\": 1}, \"31\": {\"S\": 1}}" energy=-139.38763427734375 free_energy=-139.38763427734375 stress="-0.0021609666291624308 0.0018687956035137177 -0.00020884898549411446 0.0018687956035137177 -0.001458602026104927 0.0015353382332250476 -0.00020884898549411446 0.0015353382332250476 -0.007765111979097128" pbc="T T T"
Li       2.36020301       0.62240490       4.22466211        0      -0.36614805       0.21440853      -0.28177085       0.21110746      -0.39356571      -0.02476484
Li       4.21846803       7.62793002       8.82250485        1      -0.14402850      -1.25222943       0.35079097      -0.41194913       0.49736458      -0.28323686
Li       5.54556555       7.75564777       2.20814551        2      -0.05149765      -0.03479091      -0.33043762       0.07393775      -0.00587857      -0.44494319
Li       0.63543727       0.13172527      10.86934780        3      -0.30795490      -0.20214883      -1.19175098       0.07042713       0.11258388      -0.08955373
Li       3.75968252       4.26378464       8.73230030        4      -0.23580609       0.20233821      -0.22445826       0.23691936       0.13523194       0.00275189
Li       2.37531347       3.95493684       4.43612897        5      -0.03232244      -0.49042218       0.56107060      -0.12308763      -0.22695142      -0.08265971
Li       0.72496579       3.72918661      10.88465607        6       0.13184180      -0.02987920       1.25509349      -0.14369859      -0.27790606      -0.21956185
Li       5.52433573       4.45407351       2.11552176        7      -0.18802171      -0.50460868      -0.07384662       0.03851317      -0.31781089       0.16020933
Li       3.19965988       0.20468633       0.00312321        8      -0.33767410       0.30831197      -0.31278302       0.23439220      -0.06409904       0.04823676
Li      -0.19207638       0.24564385       6.46253298        9      -0.36568615       0.75182342       0.04387294       0.04438274      -0.03573903       0.07067002
Li       2.75863232       4.06692011      -0.20194334       10      -0.11259066       0.12651668      -0.24949714       0.15098229       0.11671209       0.17623140
Li      -0.20053578       3.92237933       6.65692231       11       0.43574830      -0.21365882       0.66531290       0.03515376       0.01190821      -0.01117503
P        0.90258399       1.91047880       1.13678774       12      -0.06345029      -0.47305458      -0.57595254       1.24689436       1.40283060      -0.01823412
P        5.27729780       5.99715325      11.98492404       13      -0.98113819      -1.08516859       1.07835769      -0.58292484      -1.55417633      -1.06035173
P        4.01743523       6.05505336       5.29758969       14      -0.24578718       0.55618090       0.39366970       0.03989783       0.59150839       0.25621817
P        2.10957341       2.01898933       7.72688433       15      -0.27974496       0.16094821       0.98615230       0.30885416      -0.21616438       0.21894391
S        5.12182296       2.05080039       1.22840218       16       1.65664488       1.17599592      -0.98137003      -1.24469757      -0.26322791       0.15109067
S        1.15668677       5.88245300      11.76281204       17      -0.12761617      -1.34407481       1.18870421      -0.35441685       0.55387199       0.16129231
S        1.98202667       6.11929937       5.35473185       18       0.66788549       1.36837167       0.46337282       0.36856598       0.15810248      -0.40874535