32
Lattice="6.17176593 0.0 0.0 0.0 8.01859859 0.0 0.0 0.0 13.03281824" Properties=species:S:1:pos:R:3:spacegroup_kinds:I:1:forces:R:3 spacegroup="P 1" unit_cell=conventional occupancy="_JSON {\"0\": {\"Li\": 1}, \"1\": {\"Li\": 1}, \"2\": {\"Li\": 1}, \"3\": {\"Li\": 1}, \"4\": {\"Li\": 1}, \"5\": {\"Li\": 1}, \"6\": {\"Li\": 1}, \"7\": {\"Li\": 1}, \"8\": {\"Li\": 1}, \"9\": {\"Li\": 1}, \"10\": {\"Li\": 1}, \"11\": {\"Li\": 1}, \"12\": {\"P\": 1}, \"13\": {\"P\": 1}, \"14\": {\"P\": 1}, \"15\": {\"P\": 1}, \"16\": {\"S\": 1}, \"17\": {\"S\": 1}, \"18\": {\"S\": 1}, \"19\": {\"S\": 1}, \"20\": {\"S\": 1}, \"21\": {\"S\": 1}, \"22\": {\"S\": 1}, \"23\": {\"S\": 1}, \"24\": {\"S\": 1}, \"25\": {\"S\": 1}, \"26\": {\"S\": 1}, \"27\": {\"S\": 1}, \"28\": {\"S\": 1}, \"29\": {\"S\": 1}, \"30\": {\"S\": 1}, \"31\": {\"S\": 1}}" energy=-140.31869506835938 free_energy=-140.31869506835938 stress="-0.007170621771365404 -3.4084020050784147e-09 3.251788394109667e-09 -3.4084020050784147e-09 -0.008259407244622707 1.6595587126744249e-09 3.251788394109667e-09 1.6595587126744249e-09 -0.005266313441097736" pbc="T T T"
Li       2.40329652       0.26860172       4.33400832        0      -0.02603553       0.00549150      -0.00432121
Li       3.76846941       7.74999687       8.69880992        1       0.02603651      -0.00549149       0.00432289
Li       5.48917948       7.74999687       2.18240080        2      -0.02603617      -0.00549039       0.00432279
Li       0.68258645       0.26860172      10.85041744        3       0.02603523       0.00549193      -0.00431975
Li       3.76846941       4.27790102       8.69880992        4       0.02603655       0.00549161       0.00432248
Li       2.40329652       3.74069757       4.33400832        5      -0.02603606      -0.00549149      -0.00432175
Li       0.68258645       3.74069757      10.85041744        6       0.02603612      -0.00549202      -0.00431983
Li       5.48917948       4.27790102       2.18240080        7      -0.02603626       0.00549107       0.00432303
Li       3.08588297       0.00000000       0.00000000        8      -0.00000078      -0.00000177      -0.00000108
Li       0.00000000       0.00000000       6.51640912        9      -0.00000001      -0.00000060       0.00000023
Li       3.08588297       4.00929929       0.00000000       10       0.00000024       0.00000070      -0.00000027
Li       0.00000000       4.00929929       6.51640912       11       0.00000049      -0.00000015      -0.00000027
P        0.94051010       2.00464965       1.16601784       12      -0.02067249      -0.00000012       0.02376025
P        5.23125583       6.01394894      11.86680040       13       0.02066630       0.00000206      -0.02375945
P        4.02639307       6.01394894       5.35039128       14      -0.02066789       0.00000235      -0.02375695
P        2.14537286       2.00464965       7.68242696       15       0.02066912      -0.00000017       0.02375685
S        5.08970823       2.00464965       1.30575389       16      -0.25450522      -0.00000039       0.01679121
S        1.08205770       6.01394894      11.72706435       17       0.25450799      -0.00000055      -0.01679159
S        2.00382526       6.01394894       5.21065523       18      -0.25450569      -0.00000020      -0.01679141
S        4.16794067       2.00464965       7.82216301       19       0.25450110      -0.00000084       0.01679058
S        1.68132889       2.00464965      12.25955363       20       0.10912266       0.00000021      -0.16719596
S        4.49043704       6.01394894       0.77326461       21      -0.10912052       0.00000024       0.16718090
S        4.76721186       6.01394894       7.28967373       22       0.10912090      -0.00000007       0.16717985
S        1.40455407       2.00464965       5.74314451       23      -0.10911988      -0.00000012      -0.16718188
S        1.67233151       0.29287049       2.00524453       24       0.13957736      -0.21272573       0.08709957
S        4.49943442       7.72572810      11.02757371       25      -0.13957538       0.21272387      -0.08709252
S        4.75821447       7.72572810       4.51116459       26       0.13957503       0.21272476      -0.08709101
S        1.41355146       0.29287049       8.52165365       27      -0.13957621      -0.21272059       0.08709157
S        4.49943442       4.30216979      11.02757371       28      -0.13957775      -0.21272571      -0.08709347
S        1.67233151       3.71642880       2.00524453       29       0.13957913       0.21272685       0.08709873
S        1.41355146       3.71642880       8.52165365       30      -0.13957608       0.21272098       0.08709092
S        4.75821447       4.30216979       4.51116459       31       0.13957697      -0.21272564      -0.08709329
