4
Lattice="3.128588 0.0 0.0 -1.5642939988088433 2.709436998432005 0.0 0.0 0.0 5.016955" Properties=species:S:1:pos:R:3:spacegroup_kinds:I:1:forces:R:3 spacegroup="P 1" unit_cell=conventional occupancy="_JSON {\"0\": {\"Al\": 1}, \"1\": {\"Al\": 1}, \"2\": {\"N\": 1}, \"3\": {\"N\": 1}}" energy=-29.673717498779297 free_energy=-29.673717498779297 stress="-0.002225215081125498 -1.4494482911686646e-06 -1.0381643988921496e-08 -1.4494482911686646e-06 -0.0022274539805948734 -6.969879534635126e-11 -1.0381643988921496e-08 -6.969879534635126e-11 -0.005453708115965128" pbc="T T T"
Al       1.56429556       0.90314476       2.50490041        0      -0.00003509       0.00001974       0.00553244
Al      -0.00000156       1.80629224       5.01337791        1       0.00003485      -0.00002043       0.00552370
N        1.56429556       0.90314476       4.41849749        2      -0.00003671       0.00002107      -0.00553032
N       -0.00000156       1.80629224       1.91001999        3       0.00003690      -0.00002054      -0.00552567
