56
Lattice="10.7619164 0.0 0.0 -9.665296305262016 4.732958053065482 0.0 -0.5483100463354086 -2.3664790220718444 10.484177494289693" Properties=species:S:1:pos:R:3:spacegroup_kinds:I:1:momenta:R:3:forces:R:3 spacegroup="P 1" unit_cell=conventional occupancy="_JSON {\"0\": {\"H\": 1}, \"1\": {\"H\": 1}, \"2\": {\"H\": 1}, \"3\": {\"H\": 1}, \"4\": {\"H\": 1}, \"5\": {\"H\": 1}, \"6\": {\"H\": 1}, \"7\": {\"H\": 1}, \"8\": {\"H\": 1}, \"9\": {\"H\": 1}, \"10\": {\"H\": 1}, \"11\": {\"H\": 1}, \"12\": {\"H\": 1}, \"13\": {\"H\": 1}, \"14\": {\"H\": 1}, \"15\": {\"H\": 1}, \"16\": {\"H\": 1}, \"17\": {\"H\": 1}, \"18\": {\"H\": 1}, \"19\": {\"H\": 1}, \"20\": {\"H\": 1}, \"21\": {\"H\": 1}, \"22\": {\"H\": 1}, \"23\": {\"H\": 1}, \"24\": {\"H\": 1}, \"25\": {\"H\": 1}, \"26\": {\"H\": 1}, \"27\": {\"H\": 1}, \"28\": {\"H\": 1}, \"29\": {\"H\": 1}, \"30\": {\"H\": 1}, \"31\": {\"H\": 1}, \"32\": {\"C\": 1}, \"33\": {\"C\": 1}, \"34\": {\"C\": 1}, \"35\": {\"C\": 1}, \"36\": {\"C\": 1}, \"37\": {\"C\": 1}, \"38\": {\"C\": 1}, \"39\": {\"C\": 1}, \"40\": {\"C\": 1}, \"41\": {\"C\": 1}, \"42\": {\"C\": 1}, \"43\": {\"C\": 1}, \"44\": {\"C\": 1}, \"45\": {\"C\": 1}, \"46\": {\"C\": 1}, \"47\": {\"C\": 1}, \"48\": {\"O\": 1}, \"49\": {\"O\": 1}, \"50\": {\"O\": 1}, \"51\": {\"O\": 1}, \"52\": {\"O\": 1}, \"53\": {\"O\": 1}, \"54\": {\"O\": 1}, \"55\": {\"O\": 1}}" energy=-313.6218566894531 free_energy=-313.6218566894531 stress="-0.006905381567776203 -0.0013853348791599274 -0.004504638258367777 -0.0013853348791599274 0.009439188055694103 0.0056000202894210815 -0.004504638258367777 0.0056000202894210815 0.013407251797616482" pbc="T T T"
H        0.49738828       1.84331538       1.77824716        0      -0.10613539      -0.09781681       0.11564544      -0.18202212       0.31332517       0.59539592
H        0.10556124      -0.11663740       8.27653510        1       0.04015920      -0.13169405       0.14437801      -0.36897466      -0.78897452       0.22591041
H        6.62289124      -0.91207479       5.20265674        2      -0.16864287       0.10450082      -0.19163962       0.98594439      -0.03108484       0.77322638
H        3.36922865       0.56254885       5.08036064        3       0.12068346      -0.12391012       0.11663998      -0.39409113      -0.59535229      -0.23536895
H        5.95301316       0.59228746       3.38812083        4       0.14111124      -0.33747240      -0.07871955      -0.93092120      -0.50391811       0.87667942
H        5.01744028       0.42520645       7.32442018        5      -0.23162762       0.06489369      -0.14197719      -0.38864934      -1.26104784      -0.47847676
H       -1.57731808       0.54128656      10.53958322        6      -0.12407217      -0.08816738      -0.07763826      -0.37742668      -0.46800908       0.30721259
H        2.69863451       2.00433373       0.26116683        7      -0.05404047       0.01557184      -0.10225940      -0.72494096      -0.67531574      -0.86528862
H       -1.22304019       1.63674028       1.75940516        8      -0.05425005       0.24253184      -0.13897910      -0.49740666      -0.09367684       0.10530851
H       -8.93359092       2.96970995       8.47514803        9      -0.06042013      -0.12559586      -0.10761957       0.36620557      -0.63051385       0.55257308
H       -2.26849149       4.25936928       6.83350206       10       0.20578919       0.12214754       0.33238348      -0.06950045      -0.47619414      -0.34378275
H       -6.68836093       4.95609512       3.39407472       11      -0.06212348       0.10325985      -0.15892919       0.13254125      -0.56484920       0.15243131
H       -3.12925527       0.32645868       3.01954326       12       0.09286890       0.17897675      -0.00989633       0.31409577       0.11225237       0.01380780
H       -6.80751091       1.79512257       7.74588646       13       0.11313594      -0.05419607      -0.04504100      -2.35593081       0.59493887      -0.52510345
H       -1.67751199       0.97559926       8.80862455       14       0.00516211      -0.30016465      -0.16851765      -0.66054302       0.17537254       0.81925857
H       -7.85157860       2.25969175       2.02092905       15       0.06193711       0.16966541       0.04109096       0.45021513       0.30493122      -0.97372204
H       -1.03679273       0.54726078       4.10971780       16       0.09384544       0.18126037      -0.07858758       0.29054293       0.47456187       0.73892814
H        1.41496390       2.60741886       5.94194786       17       0.17914710       0.16208038      -0.08142768       0.04019843      -0.18983383       0.67822647
H       -0.64058320       2.00872363       6.06364892       18      -0.05634323       0.12337160       0.04032478      -0.53552127       0.51598042      -0.09276740
H        0.85977718      -0.92446409       4.06230109       19       0.08226660       0.01615484       0.13954107      -0.43777609      -0.05474904       0.42652586
H        7.07832340       1.52716401       0.77918398       20       0.03746097       0.06299046      -0.11847604      -0.51151860      -0.36470050      -0.19009735
H       -5.65481899       2.28567736       9.73114967       21       0.07723476       0.36926375      -0.07796327       0.09997500      -0.39057854       0.05156131
H        6.08095711      -2.02800098       9.57309382       22       0.04996262       0.13992139      -0.04251378       0.10451916      -0.44055367      -0.00563563
H       -5.39307791       3.26285544       1.28813585       23      -0.08191856      -0.05415416       0.26987169      -0.86360133      -0.75486410      -0.77635968
H       -0.07299411       0.27971728       1.81917009       24       0.13898086       0.34269265       0.14181099      -0.42564157      -0.34437630       0.62044811
H       -1.06700001      -1.51563959       8.21163902       25      -0.20145761       0.01373074       0.07616584      -0.17211555      -0.24385300       0.51164818
H       -2.96209887       2.60530208       6.43440306       26       0.06315752      -0.07174920      -0.16381541       0.16209382       0.09858426       0.31126714
H       -6.35720030       3.51669330       4.57538908       27       0.16449774       0.18567766       0.02440288      -0.60309917       1.40273058      -0.34498453
H       -3.82677234       2.00991105       3.18430536       28       0.08980691      -0.11710541      -0.00472112       0.23108855       0.02061258      -0.20068383
H       -5.17636492       2.03285271       7.19923468       29       0.10905353      -0.18779723       0.15105986      -0.36807728      -0.23564321       0.74253678
H       -0.79357741       4.53174570      -0.43569601       30      -0.12628011      -0.10201590      -0.01900694      -0.09977168       0.06218541       0.11299514
H        2.31575722       1.30675619      11.36317822       31       0.12164054       0.07458618      -0.08519281       0.08103555      -0.48911417      -0.09376717
C       -0.37163617       1.38708491       3.80590664       32       0.82677603       0.29513799       0.09766067       0.43048704      -0.84296668      -2.02712393
C        0.11847919      -1.18778294       6.49983783       33      -0.62840368      -0.18736734      -0.14628151      -0.37041748       0.27215159      -0.96541280
C       -0.97555888       2.96185317       5.57576501       34      -0.36449234      -1.07571450       0.20948506       0.37155941       0.17794004       0.59157205
C        1.35011573      -0.15700512       4.68315320       35      -0.02227825       0.95830944       0.13073089       0.73833591       1.50494802       0.40339258
C        6.36784108       0.86650852       1.33870140       36       0.30590173       0.88519085       1.28776933       1.97926354      -0.30296254       0.89318210
C       -5.53677833       1.29363386       9.24627698       37       0.27688784      -0.37684203       0.66636711      -0.66258132      -0.77057195       0.58603662
C       -3.39932687       1.69730094      10.02118756       38      -0.84111878      -0.44256751       0.59809787       0.37920111       0.54998928       0.65976232
C        4.71880465       2.50518189       0.70336300       39       0.38984750       0.88224204      -0.51305570      -0.59659827       1.44278049       0.49371976
C       -0.32683946       1.26219666       2.24609216       40      -0.63948219       0.50546199       0.23424457       0.77351195       0.79703385      -0.39456499
C       -0.05210451      -1.19852047       8.01058156       41       0.11582198      -0.65737015      -0.92748082       0.85172093       1.37443423      -1.02300835
C       -2.37909930       3.46525755       6.06278736       42      -0.05353693       0.08466624      -0.15003204      -0.40584391      -0.60532939      -1.67188430
C        2.83806340      -0.17358545       4.41939521       43       0.55229961       0.76816446      -0.43149893       1.06821704      -0.67907584       0.54370046
C        6.77902038       0.98017835       2.84378930       44      -1.12307224      -0.45029011       0.26639848      -0.51442277       0.02889203      -1.28144109
C       -5.86817698       1.36776531       7.79427933       45      -0.98979857      -0.05587670      -0.83441487       2.87885857       1.13957620      -0.55465209
C       -1.97699404       1.28319969       9.85895601       46       0.40696882      -0.18668155       0.33791017       1.72742152       0.51333904      -1.56750894
C        3.19008776       2.61285394       0.97606109       47       0.25747595       0.90120947      -0.18333095       1.07155514       1.22870338       1.82994699
O       -0.85758722       2.66103185       4.11713041       48       0.61684470      -0.37118713       1.25663887      -0.17585129       0.40347350       1.06925023
O        1.08909385      -0.23997550       6.12862838       49      -0.39618420      -0.37804546      -0.11483735       0.12260492      -0.37597555      -0.82797253
O       -1.16050473      -0.72093718       5.97406342       50      -0.34983760      -1.05740137      -0.27246534      -0.47367316      -0.41498199      -0.96765471
O        1.00795473       1.19208940       4.24044419       51      -0.03056909       0.15482466      -1.24559089      -1.03327680      -0.52625346       0.63128972
O       -3.10184421       4.20162625       0.97719067       52      -0.29226601       0.28802494      -0.94690419      -0.31202054       1.32850695      -0.04797836
O        4.30825712       0.33413954       9.75623661       53       0.02704353      -1.15722764      -0.33727136      -0.25940087       0.04013103       0.50475591
O       -4.24389642       0.74756663       9.49746213       54       0.41595513      -0.82784432       0.02626042       0.13964224       0.06729826      -0.42571348
O        5.02961366       1.21054933       1.07684158       55       0.87862717       0.61974536       1.29120710      -0.01921730      -0.82935375       0.05840361
