56
Lattice="10.7619164 0.0 0.0 -9.665296305262016 4.732958053065482 0.0 -0.5483100463354086 -2.3664790220718444 10.484177494289693" Properties=species:S:1:pos:R:3:spacegroup_kinds:I:1:momenta:R:3:forces:R:3 spacegroup="P 1" unit_cell=conventional occupancy="_JSON {\"0\": {\"H\": 1}, \"1\": {\"H\": 1}, \"2\": {\"H\": 1}, \"3\": {\"H\": 1}, \"4\": {\"H\": 1}, \"5\": {\"H\": 1}, \"6\": {\"H\": 1}, \"7\": {\"H\": 1}, \"8\": {\"H\": 1}, \"9\": {\"H\": 1}, \"10\": {\"H\": 1}, \"11\": {\"H\": 1}, \"12\": {\"H\": 1}, \"13\": {\"H\": 1}, \"14\": {\"H\": 1}, \"15\": {\"H\": 1}, \"16\": {\"H\": 1}, \"17\": {\"H\": 1}, \"18\": {\"H\": 1}, \"19\": {\"H\": 1}, \"20\": {\"H\": 1}, \"21\": {\"H\": 1}, \"22\": {\"H\": 1}, \"23\": {\"H\": 1}, \"24\": {\"H\": 1}, \"25\": {\"H\": 1}, \"26\": {\"H\": 1}, \"27\": {\"H\": 1}, \"28\": {\"H\": 1}, \"29\": {\"H\": 1}, \"30\": {\"H\": 1}, \"31\": {\"H\": 1}, \"32\": {\"C\": 1}, \"33\": {\"C\": 1}, \"34\": {\"C\": 1}, \"35\": {\"C\": 1}, \"36\": {\"C\": 1}, \"37\": {\"C\": 1}, \"38\": {\"C\": 1}, \"39\": {\"C\": 1}, \"40\": {\"C\": 1}, \"41\": {\"C\": 1}, \"42\": {\"C\": 1}, \"43\": {\"C\": 1}, \"44\": {\"C\": 1}, \"45\": {\"C\": 1}, \"46\": {\"C\": 1}, \"47\": {\"C\": 1}, \"48\": {\"O\": 1}, \"49\": {\"O\": 1}, \"50\": {\"O\": 1}, \"51\": {\"O\": 1}, \"52\": {\"O\": 1}, \"53\": {\"O\": 1}, \"54\": {\"O\": 1}, \"55\": {\"O\": 1}}" energy=-315.20623779296875 free_energy=-315.20623779296875 stress="0.0015259849606081843 -0.0007349700899794698 -5.875426154489105e-07 -0.0007349700899794698 -0.0014767707325518131 7.361025211594097e-08 -5.875426154489105e-07 7.361025211594097e-08 0.0016979868523776531" pbc="T T T"
H       -0.01248427       2.27696696       1.83153339        0       0.26354636       0.05758816       0.17128558       0.07122761       0.02707731       0.05251731
H        0.46428407      -0.32702137       8.65264411        1       0.35723632       0.30052336      -0.15421514      -0.05205602       0.05564463      -0.05251570
H        7.11696904      -0.62167877       5.76820574        2       0.13651140      -0.03657588      -0.02448058       0.06071823       0.02959673      -0.06332465
H        3.54843712       0.20514534       4.71597175        3       0.04495575       0.01373704       0.24194406      -0.04159879       0.05318694       0.06330302
H        5.94175252       0.08951207       3.41055536        4       0.10004105       0.00919574       0.06893732      -0.07122671      -0.02707768      -0.05251771
H        4.91667413       0.32702137       7.07362213        5       0.03762731       0.23702154      -0.03633186       0.05205698      -0.05563825       0.05251936
H       -1.73601084       0.62167878       9.95806050        6       0.04090260      -0.15000140      -0.41043770      -0.06071948      -0.02958592       0.06332537
H        2.38083113       2.16133369       0.52611700        7       0.07639930       0.13373956      -0.11953039       0.04159805      -0.05318608      -0.06330150
H       -1.38564785       1.18011340       2.11584331        8       0.34764813      -0.24942510       0.01968671       0.00912188       0.09641424       0.00989619
H       -8.45014457       2.81694541       8.36833418        9      -0.04487542       0.24826795       0.27191556       0.03391312       0.09078130      -0.00994061
H       -2.58250803       2.70418269       6.85836100       10       0.00836639       0.05472545      -0.13232917       0.03144372       0.09145368       0.01228180
H       -6.70499477       3.65935988       3.62581649       11      -0.35280026      -0.06406840       0.05024236       0.01202221       0.09588317      -0.01239149
H       -3.44700030       1.18636563       3.12624543       12       0.17759995       0.19181929      -0.04741865      -0.00912176      -0.09641421      -0.00989495
H       -6.59610993       1.91601265       7.35793206       13      -0.06659844      -0.18039638      -0.21144164      -0.03391628      -0.09078139       0.00994126
H       -1.70183007       2.02877537       8.86790524       14      -0.29590695       0.31510437      -0.07166042      -0.03144020      -0.09144871      -0.01229268
H       -7.79294969       3.44007720       1.61627226       15      -0.10166361      -0.21365327       0.15571300      -0.01202488      -0.09588471       0.01238995
H       -0.77544238       0.72057867       4.36236141       16      -0.29135246      -0.04383699      -0.13778795      -0.05580265      -0.06497610       0.06553212
H        1.56164860       2.67260202       6.12181608       17       0.04513471      -0.09416448      -0.19034861       0.02151169      -0.08285732      -0.06550550
H       -0.46393564       1.89516633       6.16016720       18      -0.02388752       0.06229365       0.02104621       0.04679136      -0.08891346       0.03981803
H        0.70181139      -0.86845994       4.32401029       19       0.02574107      -0.11427781      -0.05287528      -0.08095920      -0.05914045      -0.03975101
H        6.70471062       1.64590036       0.87972733       20      -0.14286290      -0.07079985      -0.14118650       0.05580515       0.06498112      -0.06553428
H       -5.84598670       2.06035604       9.60445016       21      -0.29753233       0.02254640      -0.04431235      -0.02151393       0.08285310       0.06550337
H        5.84489385      -1.89516633       9.56609904       22      -0.28312851       0.06560536      -0.15494221      -0.04679270       0.08891541      -0.03981579
H       -5.53445954       3.23493897       0.91807845       23      -0.02208037       0.11416853       0.04301970       0.08095700       0.05914072       0.03974671
H        0.25131050       0.51347389       1.94957474       24       0.15959789      -0.21361364       0.07505588      -0.00851068      -0.01871569      -0.03717788
H       -0.54820374      -1.79480395       8.53460275       25      -0.12868866      -0.15316038      -0.08588331      -0.00033007      -0.02044780       0.03709311
H       -2.80766320       2.46899490       5.11315433       26      -0.07305533       0.00146869      -0.17781296      -0.04083779      -0.01125234       0.00405160
H       -6.60619587       3.34910738       5.37102316       27       0.12888264       0.07074453      -0.23064715       0.03167353      -0.02802487      -0.00411292
H       -5.08395866       1.85300514       3.29251401       28       0.22099581       0.30740365       0.21601993       0.00851505       0.01871294       0.03717743
H       -4.83275446       1.79480396       7.19166349       29      -0.04673026      -0.18471461       0.19482948       0.00034718       0.02045744      -0.03709871
H       -0.92836486       4.63044218       0.12893441       30      -0.09883902       0.19431951       0.04569436       0.04083318       0.01124294      -0.00406439
H        2.32185777       1.38385068      10.35524308       31       0.15211596       0.04921952       0.12080102      -0.03167576       0.02802755       0.00411126
C       -0.12835063       1.44534837       3.84841655       32      -0.28778073       0.91754073       0.18270710      -0.01445509       0.09213242      -0.08206746
C        0.20260826      -1.12485611       6.63576095       33       0.00096406       0.97078231      -0.67128192       0.05361608       0.07627244       0.08205763
C       -0.77226604       2.84130358       5.69336968       34      -0.96473690       0.45234422      -0.54337998      -0.06051266       0.10292967       0.03487847
C        1.39483372      -0.15433229       4.79080781       35       0.83737779      -0.34833687      -0.35976593       0.09947440       0.06571178      -0.03489111
C        6.05761888       0.92113066       1.39367220       36       0.73780001       0.71679960       1.01054651       0.01444731      -0.09213708       0.08206871
C       -5.58356646       1.12485611       9.09050530       37       0.36600935      -0.57579551       1.35161317      -0.05360173      -0.07626268      -0.08205989
C       -3.51207206       1.89165448      10.03289656       38      -0.27702103       0.36712178       0.74445208       0.06052583      -0.10293437      -0.03488885
C        4.53443453       2.52081132       0.45128094       39      -0.47025582       0.22782501       0.51146167      -0.09947136      -0.06572062       0.03490356
C       -0.32593927       1.35886302       2.34265801       40      -0.11966996      -0.73251108       0.28611321      -0.02487658      -0.04884076       0.03836632
C        0.34202778      -1.28942579       8.14151949       41       0.57030904      -0.50578053       0.01064034       0.00090475      -0.05509213      -0.03820993
C       -2.26824862       3.05565688       5.86632716       42      -0.48098077       0.96238649       0.55365818       0.02524465      -0.06073728       0.01393112
C        2.83264719      -0.61974062       4.61785033       43      -0.04860277      -0.55844948       0.33742963      -0.04932112      -0.04330909      -0.01374434
C        6.25520752       1.00761601       2.89943074       44      -0.70747446      -0.11378709      -0.42767829       0.02487098       0.04884264      -0.03836639
C       -5.72298598       1.28942580       7.58474676       45       0.19434055       0.24831833       0.14297097      -0.00092405       0.05507600       0.03821131
C       -2.01608948       1.67730118       9.85993908       46       0.09740524      -0.72425149      -0.69205550      -0.02525559       0.06073153      -0.01390011
C        3.09662106       2.98621965       0.62423841       47      -0.12331172      -0.02208015       0.38636924       0.04932702       0.04330620       0.01374355
O       -0.42625656       2.75924355       4.28180099       48       1.20625674       0.48604619      -0.44497158       0.00567089      -0.06416568       0.01081690
O        1.04798334      -0.07585512       6.20237650       49       0.42305791      -1.01659881      -0.20166176      -0.03317290      -0.05508582      -0.01086382
O       -1.17294689      -0.80803189       6.28015861       50      -0.36133290       0.99731317      -0.30860065      -0.00324864      -0.06212798      -0.01994170
O        1.24638404       1.12493657       4.20401888       51      -0.92624698      -0.21254257      -0.34164539      -0.02462124      -0.05716509       0.01989354
O       -3.30977150       4.34019353       0.96028775       52       0.26500009      -0.83301049      -0.49473951      -0.00567076       0.06416641      -0.01082151
O        4.33297486       0.07585512       9.52388974       53      -0.48283211      -0.49689578       1.25894465       0.03316909       0.05508642       0.01086725
O       -4.20801131       0.80803190       9.44610763       54       0.43498781      -0.06064940      -0.51538975       0.00324755       0.06213056       0.01994598
O        4.68288421       1.24154246       1.03806987       55       0.06343698      -0.82659266      -1.04828579       0.02462476       0.05716880      -0.01989765
56
Lattice="10.7619164 0.0 0.0 -9.665296305262016 4.732958053065482 0.0 -0.5483100463354086 -2.3664790220718444 10.484177494289693" Properties=species:S:1:pos:R:3:spacegroup_kinds:I:1:momenta:R:3:forces:R:3 spacegroup="P 1" unit_cell=conventional occupancy="_JSON {\"0\": {\"H\": 1}, \"1\": {\"H\": 1}, \"2\": {\"H\": 1}, \"3\": {\"H\": 1}, \"4\": {\"H\": 1}, \"5\": {\"H\": 1}, \"6\": {\"H\": 1}, \"7\": {\"H\": 1}, \"8\": {\"H\": 1}, \"9\": {\"H\": 1}, \"10\": {\"H\": 1}, \"11\": {\"H\": 1}, \"12\": {\"H\": 1}, \"13\": {\"H\": 1}, \"14\": {\"H\": 1}, \"15\": {\"H\": 1}, \"16\": {\"H\": 1}, \"17\": {\"H\": 1}, \"18\": {\"H\": 1}, \"19\": {\"H\": 1}, \"20\": {\"H\": 1}, \"21\": {\"H\": 1}, \"22\": {\"H\": 1}, \"23\": {\"H\": 1}, \"24\": {\"H\": 1}, \"25\": {\"H\": 1}, \"26\": {\"H\": 1}, \"27\": {\"H\": 1}, \"28\": {\"H\": 1}, \"29\": {\"H\": 1}, \"30\": {\"H\": 1}, \"31\": {\"H\": 1}, \"32\": {\"C\": 1}, \"33\": {\"C\": 1}, \"34\": {\"C\": 1}, \"35\": {\"C\": 1}, \"36\": {\"C\": 1}, \"37\": {\"C\": 1}, \"38\": {\"C\": 1}, \"39\": {\"C\": 1}, \"40\": {\"C\": 1}, \"41\": {\"C\": 1}, \"42\": {\"C\": 1}, \"43\": {\"C\": 1}, \"44\": {\"C\": 1}, \"45\": {\"C\": 1}, \"46\": {\"C\": 1}, \"47\": {\"C\": 1}, \"48\": {\"O\": 1}, \"49\": {\"O\": 1}, \"50\": {\"O\": 1}, \"51\": {\"O\": 1}, \"52\": {\"O\": 1}, \"53\": {\"O\": 1}, \"54\": {\"O\": 1}, \"55\": {\"O\": 1}}" energy=-314.163330078125 free_energy=-314.163330078125 stress="0.0017965947045013309 -0.006295027676969767 0.004064937587827444 -0.006295027676969767 0.0028975161258131266 0.006800158880650997 0.004064937587827444 0.006800158880650997 -0.004473695997148752" pbc="T T T"
H        0.12223869       2.21335581       1.84744820        0      -0.06388212      -0.04107982      -0.23331102      -0.34890503      -0.46717766       0.26391637
H        0.31702076      -0.21474890       8.50409129        1      -0.41596664       0.28241784       0.13417994       0.19316781      -0.82259113      -0.04442022
H        7.16689581      -0.52337020       5.79422140        2      -0.01099337       0.09115197       0.18553090      -0.25331527       0.53085113      -0.08150342
H        3.56769343       0.19128014       4.81695801        3       0.00635044       0.03106409      -0.05661333      -0.45246890      -0.59983313       0.03513619
H        5.89857395       0.12906190       3.45590353        4      -0.13662975       0.06346617       0.07412538      -0.11012714      -0.04154674      -0.10463305
H        5.01440544       0.32414382       7.14335939        5       0.11996949      -0.01313396       0.16304598      -0.17231241      -0.44180602      -0.12289603
H       -1.69404179       0.62953437       9.70230156        6      -0.06773584       0.00953637      -0.07983927      -0.29939488      -0.31746322       0.05525936
H        2.37945904       2.25462944       0.31380999        7      -0.10899692       0.12801563      -0.23887814      -0.36571044      -0.41984725      -0.02494826
H       -1.28062220       1.09681357       2.00394188        8       0.10394139       0.17626298      -0.14567594      -0.56132394      -0.12197536      -0.18949646
H       -8.36548938       3.00985771       8.44664936        9       0.01874363       0.07750834      -0.14054401       0.39232111      -0.31946772      -0.01170132
H       -2.54664929       2.78893569       6.82205309       10       0.03048609       0.25775605      -0.04488793      -0.41237292      -0.20837820       1.19028521
H       -6.74143409       3.80633215       3.57290638       11       0.32050258       0.15943886       0.02898765       0.31104219       0.03236621       0.37733388
H       -3.41360536       1.09458051       3.05616296       12       0.34318408      -0.23802474       0.07743267      -0.50854176       0.08234647       0.33155921
H       -6.59466938       1.88031614       7.31880477       13       0.01536687       0.03548293       0.08656132      -0.08189658      -0.12137198       0.20796552
H       -1.92963184       2.16013647       8.81427838       14       0.12531091      -0.02323634      -0.06973017       0.40313724      -0.12264615      -0.32056546
H       -7.86690876       3.29972361       1.71696129       15      -0.08477301      -0.03159826       0.12293866      -0.01434069      -0.41004372      -0.77136552
H       -0.90235506       0.77646737       4.33988646       16      -0.08686015      -0.05814812       0.28342570       0.40913424       0.11715551       0.19911668
H        1.57326849       2.69585855       6.02312951       17       0.00715132      -0.12380870      -0.16254812      -0.29899177      -0.23123068       0.25480619
H       -0.61632290       1.91476311       6.12879313       18      -0.08876034       0.01924308      -0.05101225       0.36619490      -0.32495517       0.18464825
H        0.76835885      -0.91704695       4.28843423       19      -0.15605133       0.01894763       0.06988646      -0.03237592       0.22900400       0.08527762
H        6.70609329       1.62092021       0.91686458       20       0.01929259      -0.19191437       0.26163551       0.76997459       0.63578355      -0.47934955
H       -5.82009075       2.01052707       9.75507014       21       0.30326576       0.03656606       0.14022329      -0.00922857      -0.03741024      -0.50983822
H        5.81093419      -1.87039274       9.61285225       22       0.20657587       0.20659812      -0.02039146       0.37428129      -0.52969015       0.33497906
H       -5.59543440       3.24736139       1.04015516       23      -0.04224146      -0.11355001       0.21265877       0.13947165      -0.29077888      -0.10894863
H        0.42784604       0.48710588       2.10176740       24       0.30049799      -0.13611015      -0.00468405      -0.59484524       0.09816486      -0.19185042
H       -0.53518869      -1.77813119       8.52127419       25       0.00655574       0.08690839       0.10595491       0.65831923      -0.06782528      -0.13440573
H       -2.96285664       2.59157638       5.13270575       26      -0.25300686       0.03340893       0.06572282       0.52107239       0.35914701       0.31286728
H       -6.55716738       3.24215844       5.23786852       27      -0.16752542      -0.02805290      -0.10766355       0.03742050      -0.88643461       0.79596251
H       -5.03685281       1.93128228       3.36334312       28      -0.15021140       0.12582532      -0.10191888       0.62859273      -0.83863682      -0.54655641
H       -4.85344603       1.77016484       7.27072603       29      -0.06649182       0.16884068       0.01181288       1.25073004       0.88673419      -0.39224684
H       -0.86175595       4.56432673       0.03964648       30       0.17846398      -0.19144279      -0.07943171      -0.39175689      -0.36752009      -0.55812979
H        2.38301373       1.54051125      10.51636413       31      -0.19060829       0.01911228       0.25223006       0.14691000      -0.16933200       0.11265887
C       -0.17581895       1.46226533       3.84974164       32      -0.18515649      -0.57459549      -0.22058233       0.27882370      -0.44004235       0.08532339
C        0.22192599      -1.12504879       6.58997344       33      -0.07512314      -0.46550125       0.08488141      -0.55275607      -0.80494678       0.23250249
C       -0.84336858       2.87265024       5.66245299       34       0.04319843       0.29158551      -0.23378187       1.13018036       0.50399113      -0.24388538
C        1.43229076      -0.18392810       4.79404745       35      -0.39846647      -0.16641817      -0.07506722      -1.39263427       0.15176794      -0.49470836
C        6.06713488       0.93900035       1.43224268       36      -0.39497146      -0.32073276      -0.80955164      -1.35844016      -1.50483716      -0.67591560
C       -5.58329451       1.10380716       9.15771829       37      -0.36193219      -0.01752123       0.07000758      -0.01275872       0.62095088      -0.17375609
C       -3.52181741       1.89477509      10.09402552       38       0.16177535      -0.52863225       0.28467022       0.13258609       0.16549574      -2.07575417
C        4.51640582       2.52102927       0.51005713       39       0.36138331      -0.43527637       0.58505082       0.14680317       0.12096908       0.07940140
C       -0.28405294       1.30051715       2.35611375       40       0.19195092      -0.55821601       0.03644862       1.44869816       0.72396934      -0.52214921
C        0.37449211      -1.27541847       8.11748208       41       0.14753536       0.49373587      -0.46888027      -1.73078060       1.54831362      -0.36516821
C       -2.30636824       3.14844779       5.85186588       42      -0.25949156       1.26103866      -0.54787128      -0.30482733      -0.37170398      -1.63763273
C        2.84200269      -0.65064889       4.64737901       43       0.56034601      -0.10141672      -0.32885509       0.85266012       1.99939823      -1.91112518
C        6.24443653       1.02088159       2.92126916       44       0.40080569      -0.06552295       0.31202125       0.30223843       0.54350698       0.34550610
C       -5.72072982       1.29321543       7.63361805       45      -0.11247025      -0.13664528       1.05760913      -1.14459932      -0.53769743       0.96596199
C       -2.05012739       1.65516313       9.77267022       46      -0.47453590       0.69520735      -0.54057453       0.62451643       1.48065257       1.00712430
C        3.08351631       3.00246315       0.64822750       47      -0.01605111       0.11556263       0.01380982       0.20967579       0.51371491       0.80870819
O       -0.35411232       2.78763685       4.26978768       48       0.22350737       0.25056279       0.25663349      -1.10039830       0.01685438       0.20637952
O        1.06167984      -0.11984226       6.16496940       49      -0.16821868      -0.55392458      -0.45958729       0.11152101       0.85498631       0.49101341
O       -1.21357942      -0.78977939       6.25156088       50      -0.33543371      -0.44277470      -0.25066837       0.73390561      -0.39541662       0.41342172
O        1.20697421       1.13024276       4.19342497       51       0.17004624       0.12777107       0.14454289       0.59316206      -1.04898369       0.70126653
O       -3.31489246       4.29053999       0.93958222       52      -0.41183540      -0.17658523       0.40053847      -0.10513929       0.93135232       2.17608857
O        4.33821577       0.06296653       9.62059752       53       0.35992278       0.45633113       0.21462752       0.43338123       0.52332258      -1.13898158
O       -4.17202258       0.83010248       9.41381798       54       0.02043457       0.24051371      -0.02777867      -0.78839946      -0.43915987       0.27765483
O        4.70668948       1.20000077       0.96656716       55       0.53785616      -0.22599734      -0.23686577      -0.20127968       0.02995090       1.29980683
56
Lattice="10.7619164 0.0 0.0 -9.665296305262016 4.732958053065482 0.0 -0.5483100463354086 -2.3664790220718444 10.484177494289693" Properties=species:S:1:pos:R:3:spacegroup_kinds:I:1:momenta:R:3:forces:R:3 spacegroup="P 1" unit_cell=conventional occupancy="_JSON {\"0\": {\"H\": 1}, \"1\": {\"H\": 1}, \"2\": {\"H\": 1}, \"3\": {\"H\": 1}, \"4\": {\"H\": 1}, \"5\": {\"H\": 1}, \"6\": {\"H\": 1}, \"7\": {\"H\": 1}, \"8\": {\"H\": 1}, \"9\": {\"H\": 1}, \"10\": {\"H\": 1}, \"11\": {\"H\": 1}, \"12\": {\"H\": 1}, \"13\": {\"H\": 1}, \"14\": {\"H\": 1}, \"15\": {\"H\": 1}, \"16\": {\"H\": 1}, \"17\": {\"H\": 1}, \"18\": {\"H\": 1}, \"19\": {\"H\": 1}, \"20\": {\"H\": 1}, \"21\": {\"H\": 1}, \"22\": {\"H\": 1}, \"23\": {\"H\": 1}, \"24\": {\"H\": 1}, \"25\": {\"H\": 1}, \"26\": {\"H\": 1}, \"27\": {\"H\": 1}, \"28\": {\"H\": 1}, \"29\": {\"H\": 1}, \"30\": {\"H\": 1}, \"31\": {\"H\": 1}, \"32\": {\"C\": 1}, \"33\": {\"C\": 1}, \"34\": {\"C\": 1}, \"35\": {\"C\": 1}, \"36\": {\"C\": 1}, \"37\": {\"C\": 1}, \"38\": {\"C\": 1}, \"39\": {\"C\": 1}, \"40\": {\"C\": 1}, \"41\": {\"C\": 1}, \"42\": {\"C\": 1}, \"43\": {\"C\": 1}, \"44\": {\"C\": 1}, \"45\": {\"C\": 1}, \"46\": {\"C\": 1}, \"47\": {\"C\": 1}, \"48\": {\"O\": 1}, \"49\": {\"O\": 1}, \"50\": {\"O\": 1}, \"51\": {\"O\": 1}, \"52\": {\"O\": 1}, \"53\": {\"O\": 1}, \"54\": {\"O\": 1}, \"55\": {\"O\": 1}}" energy=-313.85382080078125 free_energy=-313.85382080078125 stress="0.013761326670646667 -0.004879420157521963 -0.005674321204423904 -0.004879420157521963 0.006163903512060642 0.0054760947823524475 -0.005674321204423904 0.0054760947823524475 -0.0018129297532141209" pbc="T T T"
H        0.15152026       2.21865826       1.86996608        0       0.18670818      -0.17536435       0.06887301      -0.25463024      -0.83075476       0.05804896
H        0.10920507      -0.19334250       8.62244506        1      -0.00897887       0.26460654      -0.03107075       0.20135961      -1.45994449      -1.01799393
H        7.15516441      -0.39883637       5.76710620        2       0.22383264       0.15937053      -0.34067685       0.18644491       0.19728133      -0.26340473
H        3.55287374       0.14212043       5.10648272        3      -0.16824456      -0.25377484       0.22539353      -0.53552586      -0.32389683      -0.69895834
H        5.71904798       0.28007964       3.48878614        4      -0.14175050       0.06957694       0.07981219      -0.42629346      -0.45673704       0.12704873
H        5.07217438       0.33732694       7.23278698        5      -0.02221076       0.07819958       0.03358507       0.14585014      -0.33883363      -0.34743696
H       -1.86337461       0.61454908       9.70908660        6       0.00209975      -0.06951315       0.02682903       0.35397428       0.27212831       0.03442089
H        2.40409160       2.23500131       0.27412504        7      -0.05904473      -0.08227797      -0.03197368       0.20295049       0.43273556      -0.32657397
H       -1.27779535       1.10993531       2.00836786        8      -0.09536064      -0.13044325       0.02708178      -0.83866227       0.04002948      -0.43665323
H       -8.33962605       3.21420940       8.35225611        9       0.17273800       0.29406228      -0.08361742       0.23368126       0.22765592      -0.09218075
H       -2.54133522       3.01261335       6.85842856       10       0.10491064       0.07367817       0.12018023      -0.11240955      -0.33224356       0.81576556
H       -6.39093384       3.84895151       3.60576981       11       0.14443709       0.00657603      -0.00789975      -0.26306513       0.31059143      -0.29989463
H       -3.37778190       0.94136166       3.24467999       12       0.01522218      -0.07500944       0.19342069      -1.33400166      -0.10755543      -0.76893228
H       -6.68609556       1.78694188       7.51153389       13      -0.08667883      -0.27258667      -0.01170157      -0.20094842      -0.13165149      -0.15521470
H       -1.76453234       2.05976714       8.70170599       14       0.02189841      -0.10309643       0.09738893      -0.31269485       0.19350207       0.31044099
H       -7.95445999       3.02340530       1.79564979       15      -0.04973571      -0.11226862       0.02076913       0.41189525       0.38057747      -1.18562222
H       -0.80018674       0.77039119       4.49092968       16       0.00831364      -0.06072602      -0.00660595       0.00097086       0.17438795      -0.99411529
H        1.44500770       2.50713085       6.17382267       17       0.01225029      -0.28997502      -0.01209860       0.24866402       1.14403391       0.13491321
H       -0.56090753       1.92546788       6.04306242       18       0.00912434       0.02953067      -0.02228963      -0.35387212      -0.16754811       0.13083196
H        0.67939891      -0.89355046       4.27079633       19       0.07644917      -0.05095161      -0.04691371       0.30057654      -0.10529497      -0.07734942
H        6.74714446       1.49845915       0.85340926       20      -0.11245880      -0.08927501      -0.22057032       0.51641119       1.18712354      -0.49471170
H       -5.80988207       2.10952446       9.71365888       21      -0.20491573       0.06817242      -0.10894763       0.02467387      -0.34780273      -0.22419560
H        5.87596087      -1.83571086       9.70363700       22      -0.16165019       0.07076819       0.03590418      -0.15178642      -0.88952535      -0.00086228
H       -5.50015884       3.11440209       1.13784160       23       0.11933033       0.03126315      -0.00442218      -0.11865123       0.35620612      -0.32355008
H        0.36855213       0.33657748       1.99417344       24      -0.04607067      -0.23447398      -0.15432104      -1.04204535       1.71019781       0.43702427
H       -0.32413885      -2.00709538       8.53026262       25       0.20339035      -0.17844302      -0.18322131       0.05246316       0.67889011      -0.27905279
H       -3.08714248       2.74677621       5.19721870       26      -0.01915450       0.07455466      -0.09249859       0.58998239       0.03474184       0.12558171
H       -6.69673481       3.25872598       5.21696374       27      -0.09696541      -0.06688962      -0.04755559       0.17544329      -1.07491934       0.50441355
H       -4.83143352       2.04721356       3.16449862       28       0.33766980       0.12941208       0.00704985       0.39478034      -1.34767699      -0.01897357
H       -4.93754021       1.99042841       7.37634384       29       0.05869080       0.23203832       0.01089307      -0.29873627      -0.47476310      -0.05642369
H       -0.81005382       4.51876378       0.00822839       30      -0.20155789       0.23295180      -0.03457223      -0.26692754      -0.02007607      -0.48483592
H        2.48120435       1.62674246      10.66760482       31       0.30393424      -0.01816171       0.05312309      -0.25146711      -0.60052019       0.38425082
C       -0.17497679       1.41202890       3.81608588       32       0.11041215      -0.26316005      -0.10980126       0.95673311       0.41550362       1.33580780
C        0.16861398      -1.18805867       6.60335741       33      -0.76776889       0.02200145       0.67404075      -0.22194225       0.09040904      -0.69300175
C       -0.81165543       2.89924223       5.59186425       34      -0.05282370       0.32732962      -0.63230725      -1.19237351      -0.34071538       0.60169911
C        1.38527139      -0.18167029       4.74198784       35       0.10269965       0.21879190      -0.68694701       0.81694710      -0.55123180      -0.59416008
C        6.06620573       0.86818199       1.37965231       36       0.53230789      -0.54626207       0.08532742      -0.00822449      -0.53997761       1.85034442
C       -5.59710015       1.15461055       9.17270550       37       0.05871135       1.06856395       0.55336461       0.70454580       0.84736562       1.79725277
C       -3.48648164       1.86752582      10.06803999       38       0.30032592       0.37939270      -0.58623047      -0.95997870       1.52577305      -0.53066224