56
Lattice="10.7619164 0.0 0.0 -9.665296305262016 4.732958053065482 0.0 -0.5483100463354086 -2.3664790220718444 10.484177494289693" Properties=species:S:1:pos:R:3:spacegroup_kinds:I:1:forces:R:3 spacegroup="P 1" unit_cell=conventional occupancy="_JSON {\"0\": {\"H\": 1}, \"1\": {\"H\": 1}, \"2\": {\"H\": 1}, \"3\": {\"H\": 1}, \"4\": {\"H\": 1}, \"5\": {\"H\": 1}, \"6\": {\"H\": 1}, \"7\": {\"H\": 1}, \"8\": {\"H\": 1}, \"9\": {\"H\": 1}, \"10\": {\"H\": 1}, \"11\": {\"H\": 1}, \"12\": {\"H\": 1}, \"13\": {\"H\": 1}, \"14\": {\"H\": 1}, \"15\": {\"H\": 1}, \"16\": {\"H\": 1}, \"17\": {\"H\": 1}, \"18\": {\"H\": 1}, \"19\": {\"H\": 1}, \"20\": {\"H\": 1}, \"21\": {\"H\": 1}, \"22\": {\"H\": 1}, \"23\": {\"H\": 1}, \"24\": {\"H\": 1}, \"25\": {\"H\": 1}, \"26\": {\"H\": 1}, \"27\": {\"H\": 1}, \"28\": {\"H\": 1}, \"29\": {\"H\": 1}, \"30\": {\"H\": 1}, \"31\": {\"H\": 1}, \"32\": {\"C\": 1}, \"33\": {\"C\": 1}, \"34\": {\"C\": 1}, \"35\": {\"C\": 1}, \"36\": {\"C\": 1}, \"37\": {\"C\": 1}, \"38\": {\"C\": 1}, \"39\": {\"C\": 1}, \"40\": {\"C\": 1}, \"41\": {\"C\": 1}, \"42\": {\"C\": 1}, \"43\": {\"C\": 1}, \"44\": {\"C\": 1}, \"45\": {\"C\": 1}, \"46\": {\"C\": 1}, \"47\": {\"C\": 1}, \"48\": {\"O\": 1}, \"49\": {\"O\": 1}, \"50\": {\"O\": 1}, \"51\": {\"O\": 1}, \"52\": {\"O\": 1}, \"53\": {\"O\": 1}, \"54\": {\"O\": 1}, \"55\": {\"O\": 1}}" energy=-315.20623779296875 free_energy=-315.20623779296875 stress="0.0015259849606081843 -0.0007349700899794698 -5.875426154489105e-07 -0.0007349700899794698 -0.0014767707325518131 7.361025211594097e-08 -5.875426154489105e-07 7.361025211594097e-08 0.0016979868523776531" pbc="T T T"
H       -0.01248427       2.27696696       1.83153339        0       0.07122761       0.02707731       0.05251731
H        0.46428407      -0.32702137       8.65264411        1      -0.05205602       0.05564463      -0.05251570
H        7.11696904      -0.62167877       5.76820574        2       0.06071823       0.02959673      -0.06332465
H        3.54843712       0.20514534       4.71597175        3      -0.04159879       0.05318694       0.06330302
H        5.94175252       0.08951207       3.41055536        4      -0.07122671      -0.02707768      -0.05251771
H        4.91667413       0.32702137       7.07362213        5       0.05205698      -0.05563825       0.05251936
H       -1.73601084       0.62167878       9.95806050        6      -0.06071948      -0.02958592       0.06332537
H        2.38083113       2.16133369       0.52611700        7       0.04159805      -0.05318608      -0.06330150
H       -1.38564785       1.18011340       2.11584331        8       0.00912188       0.09641424       0.00989619
H       -8.45014457       2.81694541       8.36833418        9       0.03391312       0.09078130      -0.00994061
H       -2.58250803       2.70418269       6.85836100       10       0.03144372       0.09145368       0.01228180
H       -6.70499477       3.65935988       3.62581649       11       0.01202221       0.09588317      -0.01239149
H       -3.44700030       1.18636563       3.12624543       12      -0.00912176      -0.09641421      -0.00989495
H       -6.59610993       1.91601265       7.35793206       13      -0.03391628      -0.09078139       0.00994126
H       -1.70183007       2.02877537       8.86790524       14      -0.03144020      -0.09144871      -0.01229268
H       -7.79294969       3.44007720       1.61627226       15      -0.01202488      -0.09588471       0.01238995
H       -0.77544238       0.72057867       4.36236141       16      -0.05580265      -0.06497610       0.06553212
H        1.56164860       2.67260202       6.12181608       17       0.02151169      -0.08285732      -0.06550550
H       -0.46393564       1.89516633       6.16016720       18       0.04679136      -0.08891346       0.03981803
H        0.70181139      -0.86845994       4.32401029       19      -0.08095920      -0.05914045      -0.03975101
H        6.70471062       1.64590036       0.87972733       20       0.05580515       0.06498112      -0.06553428
H       -5.84598670       2.06035604       9.60445016       21      -0.02151393       0.08285310       0.06550337
H        5.84489385      -1.89516633       9.56609904       22      -0.04679270       0.08891541      -0.03981579
H       -5.53445954       3.23493897       0.91807845       23       0.08095700       0.05914072       0.03974671
H        0.25131050       0.51347389       1.94957474       24      -0.00851068      -0.01871569      -0.03717788
H       -0.54820374      -1.79480395       8.53460275       25      -0.00033007      -0.02044780       0.03709311
H       -2.80766320       2.46899490       5.11315433       26      -0.04083779      -0.01125234       0.00405160
H       -6.60619587       3.34910738       5.37102316       27       0.03167353      -0.02802487      -0.00411292
H       -5.08395866       1.85300514       3.29251401       28       0.00851505       0.01871294       0.03717743
H       -4.83275446       1.79480396       7.19166349       29       0.00034718       0.02045744      -0.03709871
H       -0.92836486       4.63044218       0.12893441       30       0.04083318       0.01124294      -0.00406439
H        2.32185777       1.38385068      10.35524308       31      -0.03167576       0.02802755       0.00411126
C       -0.12835063       1.44534837       3.84841655       32      -0.01445509       0.09213242      -0.08206746
C        0.20260826      -1.12485611       6.63576095       33       0.05361608       0.07627244       0.08205763
C       -0.77226604       2.84130358       5.69336968       34      -0.06051266       0.10292967       0.03487847
C        1.39483372      -0.15433229       4.79080781       35       0.09947440       0.06571178      -0.03489111
C        6.05761888       0.92113066       1.39367220       36       0.01444731      -0.09213708       0.08206871
C       -5.58356646       1.12485611       9.09050530       37      -0.05360173      -0.07626268      -0.08205989
C       -3.51207206       1.89165448      10.03289656       38       0.06052583      -0.10293437      -0.03488885
C        4.53443453       2.52081132       0.45128094       39      -0.09947136      -0.06572062       0.03490356
C       -0.32593927       1.35886302       2.34265801       40      -0.02487658      -0.04884076       0.03836632
C        0.34202778      -1.28942579       8.14151949       41       0.00090475      -0.05509213      -0.03820993
C       -2.26824862       3.05565688       5.86632716       42       0.02524465      -0.06073728       0.01393112
C        2.83264719      -0.61974062       4.61785033       43      -0.04932112      -0.04330909      -0.01374434
C        6.25520752       1.00761601       2.89943074       44       0.02487098       0.04884264      -0.03836639
C       -5.72298598       1.28942580       7.58474676       45      -0.00092405       0.05507600       0.03821131
C       -2.01608948       1.67730118       9.85993908       46      -0.02525559       0.06073153      -0.01390011
C        3.09662106       2.98621965       0.62423841       47       0.04932702       0.04330620       0.01374355
O       -0.42625656       2.75924355       4.28180099       48       0.00567089      -0.06416568       0.01081690
O        1.04798334      -0.07585512       6.20237650       49      -0.03317290      -0.05508582      -0.01086382
O       -1.17294689      -0.80803189       6.28015861       50      -0.00324864      -0.06212798      -0.01994170
O        1.24638404       1.12493657       4.20401888       51      -0.02462124      -0.05716509       0.01989354
O       -3.30977150       4.34019353       0.96028775       52      -0.00567076       0.06416641      -0.01082151
O        4.33297486       0.07585512       9.52388974       53       0.03316909       0.05508642       0.01086725
O       -4.20801131       0.80803190       9.44610763       54       0.00324755       0.06213056       0.01994598
O        4.68288421       1.24154246       1.03806987       55       0.02462476       0.05716880      -0.01989765
