32
Lattice="6.17176593 0.0 0.0 0.0 8.01859859 0.0 0.0 0.0 13.03281824" Properties=species:S:1:pos:R:3:spacegroup_kinds:I:1:momenta:R:3:forces:R:3 spacegroup="P 1" unit_cell=conventional occupancy="_JSON {\"0\": {\"Li\": 1}, \"1\": {\"Li\": 1}, \"2\": {\"Li\": 1}, \"3\": {\"Li\": 1}, \"4\": {\"Li\": 1}, \"5\": {\"Li\": 1}, \"6\": {\"Li\": 1}, \"7\": {\"Li\": 1}, \"8\": {\"Li\": 1}, \"9\": {\"Li\": 1}, \"10\": {\"Li\": 1}, \"11\": {\"Li\": 1}, \"12\": {\"P\": 1}, \"13\": {\"P\": 1}, \"14\": {\"P\": 1}, \"15\": {\"P\": 1}, \"16\": {\"S\": 1}, \"17\": {\"S\": 1}, \"18\": {\"S\": 1}, \"19\": {\"S\": 1}, \"20\": {\"S\": 1}, \"21\": {\"S\": 1}, \"22\": {\"S\": 1}, \"23\": {\"S\": 1}, \"24\": {\"S\": 1}, \"25\": {\"S\": 1}, \"26\": {\"S\": 1}, \"27\": {\"S\": 1}, \"28\": {\"S\": 1}, \"29\": {\"S\": 1}, \"30\": {\"S\": 1}, \"31\": {\"S\": 1}}" energy=-140.1338348388672 free_energy=-140.1338348388672 stress="0.0035080970264971256 0.00017872573516797274 -0.0007651377818547189 0.00017872573516797274 -0.0017121107084676623 -0.0002253070124424994 -0.0007651377818547189 -0.0002253070124424994 -0.001728692906908691" pbc="T T T"
Li       2.47208858       0.33933776       4.38474208        0       0.27290753       0.03973208      -0.00890279      -0.07010401      -0.06346434       0.01998428
Li       3.77847662       7.74554264       8.80379546        1      -0.22232732       0.18414339       0.23905219      -0.08695991       0.00502154      -0.09276588
Li       5.51127973       7.72870650       2.11795620        2       0.19865448      -0.05943477      -0.05771812      -0.01860717       0.02595975       0.19139951
Li       0.65966530       0.26745643      10.90681957        3      -0.06251080      -0.13577971      -0.02008221       0.13454096      -0.06842668      -0.15926674
Li       3.79901632       4.30634139       8.66171169        4      -0.05927982      -0.06365739       0.08578305       0.02404561      -0.13473892       0.02221111
Li       2.42247144       3.73094940       4.32368519        5      -0.10315840       0.13119557      -0.19391669      -0.05118782       0.02857296      -0.03420419
Li       0.67633439       3.80928381      10.95079551        6      -0.04580692      -0.13787329       0.01469148       0.01430795      -0.20513089      -0.17866361
Li       5.47600666       4.24950822       2.16049607        7      -0.14774161      -0.02061640      -0.07639445      -0.02977249       0.05118185       0.01046460
Li       3.15129647       0.15303420       0.01881442        8       0.28492985       0.29902167       0.18606440       0.10189523      -0.10385039       0.06567829
Li      -0.16950257       0.01452926       6.49650589        9      -0.50199655       0.22334282       0.33150851       0.19232354       0.18575706       0.22615060
Li       3.15450602       3.96690804       0.01595783       10       0.01826464      -0.16879698      -0.03624489      -0.04301088       0.00083273       0.02921192
Li       0.06228748       4.06006407       6.58238837       11      -0.07430099       0.44051003       0.20332990      -0.04986733       0.03873787      -0.15053576
P        0.95285184       1.97294874       1.15921779       12      -0.05437247      -0.22433872      -0.01420641      -0.27684617       0.19386402       0.29448405
P        5.25953223       5.99816338      11.89607416       13       0.12123277      -0.17018089       0.00006252      -0.08103562       0.14519885       0.00099378
P        3.99028131       5.98887713       5.34352391       14      -0.45735475      -0.51451362      -0.14380946       0.14188382       0.50754946      -0.46898758
P        2.15639243       2.00327784       7.65224360       15       0.45519250       0.36562343      -0.44147378       0.10312100      -0.08009651      -0.06046539
S        5.03918373       1.96849109       1.30371772       16       0.36650516       0.13927865       0.35603286       0.57494748       0.09623093      -0.03684278
S        1.13719553       5.98478432      11.75472897       17      -0.11081683      -0.75604436       0.27008704      -0.32905909       0.10119094       0.06021650
S        1.95854116       6.02049308       5.20921270       18      -0.58463214       0.06964227      -0.13374512       0.15896182       0.00011279      -0.09690267
S        4.23825800       1.94252783       7.80660258       19       0.21442865      -0.25495266      -0.59162104      -0.71871614       0.11913246      -0.04704260
S        1.67223046       1.96121247      12.22395338       20      -0.09366733      -0.71449203      -0.21461668       0.03097400       0.16605607       0.23893642
S        4.45250480       6.05535922       0.79068625       21       0.07359158       0.09519572      -0.00377503       0.11989559      -0.30271286      -0.08854130
S        4.73546117       6.00677478       7.26549659       22      -0.37979781      -0.04385690      -0.48294896       0.12353529       0.02698575       0.42060119
S        1.33073003       2.04522186       5.69640346       23      -0.82025466       0.39448222      -0.22649879       0.29064652      -0.02451105       0.41350126
S        1.69786863       0.27161465       2.06218476       24      -0.05707903       0.13793062       0.36378788      -0.07380950       0.27086514      -0.28515860
S        4.54689697       7.74912829      11.08250298       25       0.90415320       0.41683879       1.12401569      -0.11068470       0.02198128      -0.13445210
S        4.80311036       7.74222366       4.51417152       26       0.19710018      -0.09590749      -0.26665655      -0.36683887      -0.43017972      -0.11108496
S        1.33885655       0.30324599       8.48361222       27      -0.40963452       0.12154581      -0.38075863       0.23069395       0.07016944       0.01631526
S        4.44842241       4.31860793      11.01093204       28       0.17054556       0.01100806       0.19595642       0.21792579       0.04227370       0.09782018
S        1.68272762       3.74701519       1.97973244       29      -0.08447280      -0.18320745      -0.47581268      -0.17254084      -0.42154193      -0.17153099
S        1.46662060       3.73757130       8.53950573       30       1.12834831       0.05884719       0.64985586       0.03843502      -0.11879526      -0.00235732
S        4.78172961       4.30547753       4.49756891       31      -0.13664961       0.41531439      -0.25104547      -0.01909299      -0.14422618       0.01083369
