32
Lattice="6.17176593 0.0 0.0 0.0 8.01859859 0.0 0.0 0.0 13.03281824" Properties=species:S:1:pos:R:3:spacegroup_kinds:I:1:momenta:R:3:forces:R:3 spacegroup="P 1" unit_cell=conventional occupancy="_JSON {\"0\": {\"Li\": 1}, \"1\": {\"Li\": 1}, \"2\": {\"Li\": 1}, \"3\": {\"Li\": 1}, \"4\": {\"Li\": 1}, \"5\": {\"Li\": 1}, \"6\": {\"Li\": 1}, \"7\": {\"Li\": 1}, \"8\": {\"Li\": 1}, \"9\": {\"Li\": 1}, \"10\": {\"Li\": 1}, \"11\": {\"Li\": 1}, \"12\": {\"P\": 1}, \"13\": {\"P\": 1}, \"14\": {\"P\": 1}, \"15\": {\"P\": 1}, \"16\": {\"S\": 1}, \"17\": {\"S\": 1}, \"18\": {\"S\": 1}, \"19\": {\"S\": 1}, \"20\": {\"S\": 1}, \"21\": {\"S\": 1}, \"22\": {\"S\": 1}, \"23\": {\"S\": 1}, \"24\": {\"S\": 1}, \"25\": {\"S\": 1}, \"26\": {\"S\": 1}, \"27\": {\"S\": 1}, \"28\": {\"S\": 1}, \"29\": {\"S\": 1}, \"30\": {\"S\": 1}, \"31\": {\"S\": 1}}" energy=-140.31869506835938 free_energy=-140.31869506835938 stress="-0.007170626427978277 -2.998348014315866e-09 5.605436559363852e-09 -2.998348014315866e-09 -0.008259419351816177 2.0654848942314175e-09 5.605436559363852e-09 2.0654848942314175e-09 -0.0052663111127913" pbc="T T T"
Li       2.40329652       0.26860172       4.33400832        0       0.00000000       0.00000000       0.00000000      -0.02603514       0.00549053      -0.00432188
Li       3.76846941       7.74999687       8.69880992        1       0.00000000       0.00000000       0.00000000       0.02603556      -0.00549098       0.00432248
Li       5.48917948       7.74999687       2.18240080        2       0.00000000       0.00000000       0.00000000      -0.02603616      -0.00549083       0.00432307
Li       0.68258645       0.26860172      10.85041744        3       0.00000000       0.00000000       0.00000000       0.02603506       0.00549209      -0.00431921
Li       3.76846941       4.27790102       8.69880992        4       0.00000000       0.00000000       0.00000000       0.02603716       0.00549182       0.00432272
Li       2.40329652       3.74069757       4.33400832        5       0.00000000       0.00000000       0.00000000      -0.02603553      -0.00549172      -0.00432127
Li       0.68258645       3.74069757      10.85041744        6       0.00000000       0.00000000       0.00000000       0.02603672      -0.00549182      -0.00431944
Li       5.48917948       4.27790102       2.18240080        7       0.00000000       0.00000000       0.00000000      -0.02603576       0.00549049       0.00432258
Li       3.08588297       0.00000000       0.00000000        8       0.00000000       0.00000000       0.00000000      -0.00000080      -0.00000167      -0.00000069
Li       0.00000000       0.00000000       6.51640912        9       0.00000000       0.00000000       0.00000000       0.00000024       0.00000089      -0.00000084
Li       3.08588297       4.00929929       0.00000000       10       0.00000000       0.00000000       0.00000000      -0.00000036       0.00000035      -0.00000125
Li       0.00000000       4.00929929       6.51640912       11       0.00000000       0.00000000       0.00000000       0.00000047       0.00000069      -0.00000044
P        0.94051010       2.00464965       1.16601784       12       0.00000000       0.00000000       0.00000000      -0.02067202      -0.00000079       0.02376201
P        5.23125583       6.01394894      11.86680040       13       0.00000000       0.00000000       0.00000000       0.02066659      -0.00000017      -0.02375886
P        4.02639307       6.01394894       5.35039128       14       0.00000000       0.00000000       0.00000000      -0.02066799       0.00000257      -0.02375727
P        2.14537286       2.00464965       7.68242696       15       0.00000000       0.00000000       0.00000000       0.02066856      -0.00000123       0.02375627
S        5.08970823       2.00464965       1.30575389       16       0.00000000       0.00000000       0.00000000      -0.25450590       0.00000039       0.01679061
S        1.08205770       6.01394894      11.72706435       17       0.00000000       0.00000000       0.00000000       0.25450784      -0.00000068      -0.01679212
S        2.00382526       6.01394894       5.21065523       18       0.00000000       0.00000000       0.00000000      -0.25450593       0.00000034      -0.01679136
S        4.16794067       2.00464965       7.82216301       19       0.00000000       0.00000000       0.00000000       0.25450069      -0.00000134       0.01679008
S        1.68132889       2.00464965      12.25955363       20       0.00000000       0.00000000       0.00000000       0.10912239      -0.00000041      -0.16719592
S        4.49043704       6.01394894       0.77326461       21       0.00000000       0.00000000       0.00000000      -0.10912022       0.00000043       0.16718087
S        4.76721186       6.01394894       7.28967373       22       0.00000000       0.00000000       0.00000000       0.10912076       0.00000046       0.16717994
S        1.40455407       2.00464965       5.74314451       23       0.00000000       0.00000000       0.00000000      -0.10911964       0.00000016      -0.16718154
S        1.67233151       0.29287049       2.00524453       24       0.00000000       0.00000000       0.00000000       0.13957787      -0.21272555       0.08709951
S        4.49943442       7.72572810      11.02757371       25       0.00000000       0.00000000       0.00000000      -0.13957579       0.21272525      -0.08709256
S        4.75821447       7.72572810       4.51116459       26       0.00000000       0.00000000       0.00000000       0.13957523       0.21272524      -0.08709006
S        1.41355146       0.29287049       8.52165365       27       0.00000000       0.00000000       0.00000000      -0.13957621      -0.21271977       0.08709027
S        4.49943442       4.30216979      11.02757371       28       0.00000000       0.00000000       0.00000000      -0.13957782      -0.21272549      -0.08709411
S        1.67233151       3.71642880       2.00524453       29       0.00000000       0.00000000       0.00000000       0.13957837       0.21272670       0.08709904
S        1.41355146       3.71642880       8.52165365       30       0.00000000       0.00000000       0.00000000      -0.13957518       0.21271977       0.08709218
S        4.75821447       4.30216979       4.51116459       31       0.00000000       0.00000000       0.00000000       0.13957679      -0.21272577      -0.08709291
32
Lattice="6.17176593 0.0 0.0 0.0 8.01859859 0.0 0.0 0.0 13.03281824" Properties=species:S:1:pos:R:3:spacegroup_kinds:I:1:momenta:R:3:forces:R:3 spacegroup="P 1" unit_cell=conventional occupancy="_JSON {\"0\": {\"Li\": 1}, \"1\": {\"Li\": 1}, \"2\": {\"Li\": 1}, \"3\": {\"Li\": 1}, \"4\": {\"Li\": 1}, \"5\": {\"Li\": 1}, \"6\": {\"Li\": 1}, \"7\": {\"Li\": 1}, \"8\": {\"Li\": 1}, \"9\": {\"Li\": 1}, \"10\": {\"Li\": 1}, \"11\": {\"Li\": 1}, \"12\": {\"P\": 1}, \"13\": {\"P\": 1}, \"14\": {\"P\": 1}, \"15\": {\"P\": 1}, \"16\": {\"S\": 1}, \"17\": {\"S\": 1}, \"18\": {\"S\": 1}, \"19\": {\"S\": 1}, \"20\": {\"S\": 1}, \"21\": {\"S\": 1}, \"22\": {\"S\": 1}, \"23\": {\"S\": 1}, \"24\": {\"S\": 1}, \"25\": {\"S\": 1}, \"26\": {\"S\": 1}, \"27\": {\"S\": 1}, \"28\": {\"S\": 1}, \"29\": {\"S\": 1}, \"30\": {\"S\": 1}, \"31\": {\"S\": 1}}" energy=-140.32180786132812 free_energy=-140.32180786132812 stress="-0.0069110640324652195 -5.712502388632856e-05 2.6140352929360233e-05 -5.712502388632856e-05 -0.007989670149981976 4.619569153874181e-05 2.6140352929360233e-05 4.619569153874181e-05 -0.005123615730553865" pbc="T T T"
Li       2.40127302       0.26997249       4.33656140        0      -0.05827389       0.00952499       0.01488920      -0.02145892       0.00199579      -0.00972468
Li       3.77048185       7.75105827       8.69912586        1       0.04261093       0.00947902       0.03273739       0.02037186      -0.00719433       0.00419970
Li       5.49001729       7.75186028       2.18485896        2       0.04018623       0.08435064       0.03630827      -0.02643033      -0.00870919       0.00015183
Li       0.68142585       0.26854793      10.84959569        3      -0.03096030       0.01654947       0.00169552       0.02759764       0.00583470      -0.00084420
Li       3.77063491       4.27819251       8.70066025        4       0.13672348       0.06259017       0.10369834       0.02074260       0.00493501      -0.00115132
Li       2.40389337       3.74136103       4.33285134        5       0.04130632      -0.04848168       0.00342098      -0.02679196      -0.00683543      -0.00328149
Li       0.68422527       3.74165048      10.85031393        6       0.10517807       0.06371395      -0.03438762       0.02300794      -0.00917933      -0.00332048
Li       5.48927066       4.27618880       2.18330909        7       0.01353200      -0.05629246       0.04722809      -0.02731578       0.01008396       0.00078177
Li       3.08923688      -0.00044327      -0.00020916        8       0.11233750       0.06313184      -0.05117169      -0.00399082       0.00474037       0.00263808
Li      -0.00098148       0.00228220       6.51753258        9      -0.05873471       0.06524126       0.00024915      -0.00349936      -0.00299334      -0.00011844
Li       3.08567467       4.01003557      -0.00148590       10       0.01473781       0.04230570      -0.06492770      -0.00265032      -0.00040081       0.00448789
Li       0.00050557       4.00941987       6.51807102       11       0.05635302      -0.04634640       0.09185087      -0.00331462       0.00239619      -0.00392312
P        0.94056865       2.00439654       1.16547603       12       0.01234762      -0.16953217      -0.13918669      -0.02111073       0.00654829       0.03345651
P        5.23203594       6.01263186      11.86744452       13       0.14076390      -0.23179057       0.06283757       0.01028538       0.02694657      -0.03249397
P        4.02568102       6.01431186       5.34925618       14      -0.12494477       0.02301736      -0.18711660      -0.00061624      -0.03321336      -0.00763174
P        2.14520688       2.00444276       7.68208083       15      -0.12267237      -0.15365072      -0.15954008       0.01602207       0.00464866       0.03859423
S        5.08874638       2.00449565       1.30504885       16      -0.25550247      -0.12273853      -0.17541675      -0.23661777      -0.00002773       0.01550812
S        1.08322370       6.01307207      11.72700892       17       0.32941898      -0.13823163       0.07482756       0.24064575       0.00121742      -0.01491302
S        2.00339855       6.01427969       5.21049228       18      -0.07948400       0.05608480       0.06856985      -0.25316054      -0.00193967      -0.01886342
S        4.16844655       2.00487779       7.82272998       19       0.11802037       0.10637277       0.06902292       0.24003714      -0.00149612       0.01461416
S        1.68240151       2.00407933      12.25958211       20       0.13692242      -0.05600328       0.06575409       0.10518751       0.00101810      -0.16797361
S        4.48916240       6.01566553       0.77360374       21      -0.24790647       0.21926683       0.18523682      -0.09754999      -0.00900306       0.16179368
S        4.76707034       6.01365366       7.29025203       22       0.05526888      -0.08522908      -0.00819719       0.10293119       0.00068170       0.14349252
S        1.40441595       2.00447719       5.74227925       23      -0.01188690       0.03764686      -0.06924121      -0.10704023       0.00506254      -0.15483153
S        1.67325899       0.29302391       2.00565256       24       0.15668498      -0.04962217       0.08838260       0.13541619      -0.20720235       0.08482014
S        4.49923231       7.72608569      11.02720299       25      -0.12919722       0.18214847      -0.03659204      -0.12619241       0.18848912      -0.07671323
S        4.75810610       7.72566911       4.51154287       26      -0.03016633       0.10222601       0.26341310       0.13853878       0.21939534      -0.08961423
S        1.41171928       0.29242430       8.52216092       27      -0.45916543       0.03586273       0.13671681      -0.12352112      -0.19609810       0.07594848
S        4.49851401       4.30197578      11.02702982       28      -0.26206406      -0.14737638      -0.21746685      -0.12922330      -0.21036577      -0.07852098
S        1.67274947       3.71701401       2.00535977       29       0.09642940       0.18937608      -0.10392101       0.13127610       0.19941714       0.07690665
S        1.41350818       3.71741831       8.52257286       30       0.05646087       0.28280377       0.13987969      -0.12784575       0.19303872       0.07393502
S        4.75890722       4.30035533       4.50986709       31       0.20567615      -0.34639764      -0.23955337       0.12627003      -0.18179096      -0.06740921
32
Lattice="6.17176593 0.0 0.0 0.0 8.01859859 0.0 0.0 0.0 13.03281824" Properties=species:S:1:pos:R:3:spacegroup_kinds:I:1:momenta:R:3:forces:R:3 spacegroup="P 1" unit_cell=conventional occupancy="_JSON {\"0\": {\"Li\": 1}, \"1\": {\"Li\": 1}, \"2\": {\"Li\": 1}, \"3\": {\"Li\": 1}, \"4\": {\"Li\": 1}, \"5\": {\"Li\": 1}, \"6\": {\"Li\": 1}, \"7\": {\"Li\": 1}, \"8\": {\"Li\": 1}, \"9\": {\"Li\": 1}, \"10\": {\"Li\": 1}, \"11\": {\"Li\": 1}, \"12\": {\"P\": 1}, \"13\": {\"P\": 1}, \"14\": {\"P\": 1}, \"15\": {\"P\": 1}, \"16\": {\"S\": 1}, \"17\": {\"S\": 1}, \"18\": {\"S\": 1}, \"19\": {\"S\": 1}, \"20\": {\"S\": 1}, \"21\": {\"S\": 1}, \"22\": {\"S\": 1}, \"23\": {\"S\": 1}, \"24\": {\"S\": 1}, \"25\": {\"S\": 1}, \"26\": {\"S\": 1}, \"27\": {\"S\": 1}, \"28\": {\"S\": 1}, \"29\": {\"S\": 1}, \"30\": {\"S\": 1}, \"31\": {\"S\": 1}}" energy=-140.32701110839844 free_energy=-140.32701110839844 stress="-0.006279136519879103 -0.00017493445193395019 6.772646884201095e-05 -0.00017493445193395019 -0.007388055790215731 0.00014753655705135316 6.772646884201095e-05 0.00014753655705135316 -0.004881891887634993" pbc="T T T"
Li       2.39738831       0.26966329       4.33701402        0      -0.17280478      -0.01320442       0.00141644      -0.01245515       0.00222457      -0.01010627
Li       3.77435350       7.75248131       8.69882590        1       0.08900434       0.05252843      -0.01601652       0.01059927      -0.00895476       0.00517805
Li       5.49148216       7.75571524       2.18491736        2      -0.00008837       0.09125772       0.04529067      -0.03014283      -0.01755547       0.00285399
Li       0.67984567       0.26935327      10.84888466        3      -0.09922359       0.01736117      -0.01296021       0.02899107       0.00326221       0.00224047
Li       3.77787257       4.28039913       8.70336155        4       0.21893650       0.06851512       0.03784472       0.00290808      -0.00432115      -0.01328048
Li       2.40510610       3.74058543       4.33385446        5       0.00758935       0.01510781      -0.01076666      -0.02597588      -0.00409982      -0.00959092
Li       0.68569723       3.74465051      10.84967131        6      -0.02902688       0.08636953       0.03091897       0.02059433      -0.01515179      -0.00455702
Li       5.48913969       4.27435646       2.18543078        7       0.07685070      -0.03345206       0.09104144      -0.02723901       0.01376502      -0.00635869
Li       3.09324881       0.00294813      -0.00325769        8       0.17212818       0.07613166      -0.11826864      -0.00771387       0.00663514       0.01021014
Li      -0.00452510       0.00355620       6.51465476        9      -0.13414601       0.01301794      -0.14264563      -0.00088930      -0.00370976       0.01354758
Li       3.08768431       4.00919097      -0.00376086       10       0.08394480      -0.05007750      -0.07676294      -0.00913454      -0.00100836       0.01250342
Li       0.00419266       4.00567757       6.51969777       11       0.14282116      -0.10971423      -0.00607725      -0.01450873       0.01369311      -0.00650955
P        0.94013885       2.00315438       1.16423031       12      -0.05226202      -0.07243827      -0.12216450      -0.01567885       0.02874098       0.06479412
P        5.23342811       6.01029626      11.86911802       13       0.29328422      -0.23310570       0.34250385      -0.00176420       0.07694068      -0.05089951
P        4.02453525       6.01425806       5.34724334       14      -0.14374866       0.04136088      -0.32633778       0.03542594      -0.06332249       0.03488585
P        2.14419100       2.00254609       7.68063813       15      -0.11502458      -0.38149369      -0.33163395       0.03280438       0.05639178       0.08760905
S        5.08634675       2.00313299       1.30400825       16      -0.33002518      -0.28629302      -0.10316565      -0.20194176       0.00420285       0.01429981
S        1.08652305       6.01184539      11.72781967       17       0.47428696      -0.04449406       0.13291967       0.19252744       0.00374143      -0.01212197
S        2.00243112       6.01547522       5.21123721       18      -0.20823080       0.20292823       0.25250679      -0.24428611      -0.01093873      -0.02633463
S        4.16964545       2.00481148       7.82307232       19       0.21104921      -0.15577556       0.10460388       0.20138228      -0.00665175       0.00928053
S        1.68170009       2.00415620      12.25870286       20      -0.18034813       0.03917043      -0.20314931       0.10310933      -0.00150552      -0.16426077
S        4.48620088       6.01725570       0.77490098       21      -0.50282116       0.29332897       0.20788072      -0.07607381      -0.01994592       0.14017919
S        4.76764859       6.01213970       7.29124896       22       0.06467110      -0.37967736       0.25649137       0.09226730       0.00441285       0.09874462
S        1.40423678       2.00522137       5.74131483       23      -0.03865029       0.25188303      -0.12020414      -0.10778410       0.00055829      -0.15735871
S        1.67500955       0.29179471       2.00712622       24       0.31579148      -0.27394802       0.29595832       0.12115473      -0.17956091       0.06141170
S        4.49941027       7.72836958      11.02743599       25      -0.03943098       0.37191313      -0.03648413      -0.09827740       0.13031961      -0.05615982
S        4.75896421       7.72671545       4.51427303       26       0.18375326       0.17883195       0.45999093       0.12574448       0.21753633      -0.10878010
S        1.40761742       0.29282917       8.52242295       27      -0.47126055      -0.01298788      -0.23709656      -0.10427570      -0.19124758       0.06216562
S        4.49618630       4.30151495      11.02501555       28      -0.41772972      -0.01236270      -0.28902185      -0.10373711      -0.19064906      -0.05313952
S        1.67327265       3.71881352       2.00468261       29       0.11005655       0.23084116      -0.13443103       0.11116221       0.15626460       0.05975489
S        1.41410676       3.71968315       8.52403949       30       0.13945861       0.27540023       0.19037476      -0.09927346       0.14441125       0.04507591
S        4.76124266       4.29824137       4.50841528       31       0.35119528      -0.24692292      -0.16255576       0.10248083      -0.14447747      -0.04527704
32
Lattice="6.17176593 0.0 0.0 0.0 8.01859859 0.0 0.0 0.0 13.03281824" Properties=species:S:1:pos:R:3:spacegroup_kinds:I:1:momenta:R:3:forces:R:3 spacegroup="P 1" unit_cell=conventional occupancy="_JSON {\"0\": {\"Li\": 1}, \"1\": {\"Li\": 1}, \"2\": {\"Li\": 1}, \"3\": {\"Li\": 1}, \"4\": {\"Li\": 1}, \"5\": {\"Li\": 1}, \"6\": {\"Li\": 1}, \"7\": {\"Li\": 1}, \"8\": {\"Li\": 1}, \"9\": {\"Li\": 1}, \"10\": {\"Li\": 1}, \"11\": {\"Li\": 1}, \"12\": {\"P\": 1}, \"13\": {\"P\": 1}, \"14\": {\"P\": 1}, \"15\": {\"P\": 1}, \"16\": {\"S\": 1}, \"17\": {\"S\": 1}, \"18\": {\"S\": 1}, \"19\": {\"S\": 1}, \"20\": {\"S\": 1}, \"21\": {\"S\": 1}, \"22\": {\"S\": 1}, \"23\": {\"S\": 1}, \"24\": {\"S\": 1}, \"25\": {\"S\": 1}, \"26\": {\"S\": 1}, \"27\": {\"S\": 1}, \"28\": {\"S\": 1}, \"29\": {\"S\": 1}, \"30\": {\"S\": 1}, \"31\": {\"S\": 1}}" energy=-140.3301544189453 free_energy=-140.3301544189453 stress="-0.005616874899715185 -0.00027758412761613727 0.00010918878251686692 -0.00027758412761613727 -0.006721972953528166 0.00023513581254519522 0.00010918878251686692 0.00023513581254519522 -0.00456730043515563" pbc="T T T"
Li       2.39400677       0.27076381       4.33833351        0      -0.06439579       0.08492382       0.03126004      -0.00338151       0.00126939      -0.01011146
Li       3.77547805       7.75193298       8.70091691        1      -0.03660606       0.00056017       0.13169547       0.00576511      -0.01025952       0.00159060
Li       5.49357549       7.75975191       2.18430031        2       0.08427280       0.14128295      -0.06632783      -0.03319623      -0.02711123       0.00779065
Li       0.67801230       0.26993421      10.85121802        3      -0.08786450       0.01606461       0.11132086       0.02976542       0.00183875      -0.00590825
Li       3.78582090       4.28366324       8.70188928        4       0.18985200       0.05902370      -0.05949443      -0.01695457      -0.02036689      -0.01524075
Li       2.40407934       3.73849911       4.33316458        5      -0.06555249      -0.11854258       0.02974565      -0.01917759       0.00277439      -0.01279823
Li       0.68393428       3.74742278      10.85315409        6      -0.02489789       0.01551559       0.13425837       0.02305096      -0.02205305      -0.01545283
Li       5.49058182       4.27349699       2.18763473        7       0.00593746       0.01493839       0.01012364      -0.03201235       0.01646935      -0.01448226
Li       3.09802355       0.00670591      -0.00799784        8       0.10388643       0.10490427      -0.13198417      -0.01493680       0.01013098       0.02346995
Li      -0.01006663       0.00305979       6.51001096        9      -0.17102026      -0.05076031      -0.07909774       0.00564795      -0.00113998       0.03488513
Li       3.09308205       4.00718755      -0.00413844       10       0.13847973      -0.10059781       0.01732437      -0.01368381      -0.00473663       0.01497539
Li       0.01205554       4.00211741       6.51905382       11       0.30155409      -0.06117124      -0.05079817      -0.02782308       0.02958819      -0.00450601
P        0.94010898       2.00297270       1.16332065       12       0.02122425       0.01012679      -0.07008778      -0.02039063       0.01376281       0.08727191
P        5.23624896       6.00947968      11.87235828       13       0.41056759      -0.04429573       0.45922933      -0.05452603       0.10233887      -0.08901618
P        4.02317753       6.01416453       5.34495772       14      -0.15372917      -0.00917707      -0.28788051       0.06988472      -0.07919233       0.08505150
P        2.14420065       1.99943621       7.67807654       15       0.08502908      -0.34574686      -0.34351098       0.04155775       0.12455917       0.15265402
S        5.08315944       2.00018889       1.30337663       16      -0.54035256      -0.50064978      -0.04632501      -0.14761922       0.02020227       0.01387854
S        1.08919873       6.01160917      11.72838305       17       0.34094489      -0.00656714      -0.03925840       0.16924734       0.00409757      -0.00523778
S        2.00087425       6.01691517       5.21230467       18      -0.20871770       0.14430343       0.08293091      -0.22755636      -0.01934409      -0.03735418
S        4.17162097       2.00347958       7.82418875       19       0.30626497      -0.34356854       0.22493290       0.16005731      -0.01400432      -0.00163853
S        1.68048481       2.00310404      12.25678421       20      -0.11085099      -0.24690734      -0.22639336       0.10000651       0.00271156      -0.14164177
S        4.48239463       6.01987142       0.77655947       21      -0.48400865       0.47122469       0.31995117      -0.04958680      -0.03293271       0.12529665
S        4.76767429       6.00929207       7.29273290       22      -0.08628187      -0.32472809       0.16430614       0.08256021       0.01632942       0.04265092
S        1.40211332       2.00688053       5.74042759       23      -0.42364052       0.20751656      -0.22901074      -0.10130717      -0.00867156      -0.16882376
S        1.67762786       0.29041933       2.00997494       24       0.41611344      -0.11111499       0.42279281       0.10058178      -0.12969986       0.02518799
S        4.49923634       7.73080028      11.02776138       25       0.06065246       0.37835723       0.06587959      -0.06704444       0.07641610      -0.03463367
S        4.76111251       7.72832597       4.51703431       26       0.32383906       0.22727614       0.28921000       0.10110290       0.20377187      -0.12479977
S        1.40370275       0.29228233       8.52042925       27      -0.56221585      -0.07136948      -0.35977201      -0.09158508      -0.19054812       0.05693885
S        4.49323709       4.30170491      11.02359337       28      -0.42109261       0.04472298      -0.13481621      -0.07179070      -0.15205801      -0.02155992
S        1.67394677       3.72157661       2.00274048       29       0.09354927       0.33212940      -0.24373944       0.09276551       0.11947764       0.04604453
S        1.41533462       3.72115158       8.52580764       30       0.16963814       0.10545215       0.23720627      -0.06760010       0.08579392       0.01538258
S        4.76358530       4.29726424       4.50659917       31       0.38942121      -0.02312591      -0.36367074       0.07817900      -0.11941405      -0.02986388
32
Lattice="6.17176593 0.0 0.0 0.0 8.01859859 0.0 0.0 0.0 13.03281824" Properties=species:S:1:pos:R:3:spacegroup_kinds:I:1:momenta:R:3:forces:R:3 spacegroup="P 1" unit_cell=conventional occupancy="_JSON {\"0\": {\"Li\": 1}, \"1\": {\"Li\": 1}, \"2\": {\"Li\": 1}, \"3\": {\"Li\": 1}, \"4\": {\"Li\": 1}, \"5\": {\"Li\": 1}, \"6\": {\"Li\": 1}, \"7\": {\"Li\": 1}, \"8\": {\"Li\": 1}, \"9\": {\"Li\": 1}, \"10\": {\"Li\": 1}, \"11\": {\"Li\": 1}, \"12\": {\"P\": 1}, \"13\": {\"P\": 1}, \"14\": {\"P\": 1}, \"15\": {\"P\": 1}, \"16\": {\"S\": 1}, \"17\": {\"S\": 1}, \"18\": {\"S\": 1}, \"19\": {\"S\": 1}, \"20\": {\"S\": 1}, \"21\": {\"S\": 1}, \"22\": {\"S\": 1}, \"23\": {\"S\": 1}, \"24\": {\"S\": 1}, \"25\": {\"S\": 1}, \"26\": {\"S\": 1}, \"27\": {\"S\": 1}, \"28\": {\"S\": 1}, \"29\": {\"S\": 1}, \"30\": {\"S\": 1}, \"31\": {\"S\": 1}}" energy=-140.33120727539062 free_energy=-140.33120727539062 stress="-0.004768399987369776 -0.0003511802351567894 0.00012069245713064447 -0.0003511802351567894 -0.0060160900466144085 0.00033899216214194894 0.00012069245713064447 0.00033899216214194894 -0.004140009172260761" pbc="T T T"
Li       2.39266509       0.27643623       4.34008560        0       0.00935195       0.22736342       0.04458021       0.00469731      -0.00974619      -0.00823957
Li       3.77513320       7.75234460       8.70645668        1       0.04855484      -0.00796154       0.24397803       0.00185915      -0.01393180      -0.00620729
Li       5.49372498       7.76444820       2.18275375        2      -0.00709436       0.02629761      -0.05658631      -0.03076125      -0.03921655       0.01338004
Li       0.67710159       0.26953103      10.85439440        3      -0.00100811      -0.06194485       0.10511074       0.03096334       0.00101509      -0.01753451
Li       3.79126618       4.28615586       8.69986938        4       0.09213638       0.05128785      -0.05820497      -0.02877734      -0.03419837      -0.01588413
Li       2.40015779       3.73250320       4.33588916        5      -0.13035993      -0.17584219       0.12974713      -0.00167257       0.02194357      -0.02313721
Li       0.68173233       3.74835589      10.85942185        6      -0.10328486       0.03250841       0.21536370       0.02380285      -0.02694577      -0.02988735
Li       5.49193564       4.27329451       2.18862096        7       0.03395293      -0.04932501       0.06802684      -0.03795212       0.01849716      -0.02165492
Li       3.10094546       0.01251942      -0.01095209        8       0.11371375       0.17680183      -0.12398527      -0.01452785       0.00751694       0.03191428
Li      -0.01838856       0.00053557       6.50438697        9      -0.34156936      -0.10445728      -0.18105970       0.02022482       0.00671958       0.06170766
Li       3.09755228       4.00261873      -0.00171368       10       0.08318807      -0.19501567       0.04683766      -0.01088818      -0.00309147       0.01105969
Li       0.02118936       3.99980187       6.51740261       11       0.23608187      -0.06202476      -0.05031946      -0.04320175       0.04649770      -0.00292127
P        0.93994194       2.00207257       1.16359172       12       0.03607387      -0.25919282       0.17513889      -0.02739371       0.00028307       0.10029315
P        5.23983467       6.00932525      11.87503831       13       0.44660414      -0.03578914       0.21552217      -0.11046703       0.11854874      -0.10553385
P        4.02138384       6.01508567       5.34338061       14      -0.33159751       0.10806095      -0.11225937       0.10021736      -0.11424118       0.11112776
P        2.14479540       1.99744284       7.67472037       15      -0.03942678      -0.14131511      -0.38769473       0.04428475       0.15874960       0.21154474
S        5.07893362       1.99553460       1.30231370       16      -0.54787983      -0.67752731      -0.28462629      -0.07826468       0.04402378       0.01430299
S        1.09302786       6.01065961      11.72837134       17       0.55966161      -0.17063482      -0.11922904       0.13822272       0.00354669       0.00270724
S        1.99836457       6.01792466       5.21332689       18      -0.40996803       0.25740123       0.12809640      -0.19636554      -0.02107366      -0.04902796