32
Lattice="6.17176593 0.0 0.0 0.0 8.01859859 0.0 0.0 0.0 13.03281824" Properties=species:S:1:pos:R:3:spacegroup_kinds:I:1:forces:R:3 spacegroup="P 1" unit_cell=conventional occupancy="_JSON {\"0\": {\"Li\": 1}, \"1\": {\"Li\": 1}, \"2\": {\"Li\": 1}, \"3\": {\"Li\": 1}, \"4\": {\"Li\": 1}, \"5\": {\"Li\": 1}, \"6\": {\"Li\": 1}, \"7\": {\"Li\": 1}, \"8\": {\"Li\": 1}, \"9\": {\"Li\": 1}, \"10\": {\"Li\": 1}, \"11\": {\"Li\": 1}, \"12\": {\"P\": 1}, \"13\": {\"P\": 1}, \"14\": {\"P\": 1}, \"15\": {\"P\": 1}, \"16\": {\"S\": 1}, \"17\": {\"S\": 1}, \"18\": {\"S\": 1}, \"19\": {\"S\": 1}, \"20\": {\"S\": 1}, \"21\": {\"S\": 1}, \"22\": {\"S\": 1}, \"23\": {\"S\": 1}, \"24\": {\"S\": 1}, \"25\": {\"S\": 1}, \"26\": {\"S\": 1}, \"27\": {\"S\": 1}, \"28\": {\"S\": 1}, \"29\": {\"S\": 1}, \"30\": {\"S\": 1}, \"31\": {\"S\": 1}}" energy=-140.31869506835938 free_energy=-140.31869506835938 stress="-0.007170626427978277 -2.998348014315866e-09 5.605436559363852e-09 -2.998348014315866e-09 -0.008259419351816177 2.0654848942314175e-09 5.605436559363852e-09 2.0654848942314175e-09 -0.0052663111127913" pbc="T T T"
Li       2.40329652       0.26860172       4.33400832        0      -0.02603514       0.00549053      -0.00432188
Li       3.76846941       7.74999687       8.69880992        1       0.02603556      -0.00549098       0.00432248
Li       5.48917948       7.74999687       2.18240080        2      -0.02603616      -0.00549083       0.00432307
Li       0.68258645       0.26860172      10.85041744        3       0.02603506       0.00549209      -0.00431921
Li       3.76846941       4.27790102       8.69880992        4       0.02603716       0.00549182       0.00432272
Li       2.40329652       3.74069757       4.33400832        5      -0.02603553      -0.00549172      -0.00432127
Li       0.68258645       3.74069757      10.85041744        6       0.02603672      -0.00549182      -0.00431944
Li       5.48917948       4.27790102       2.18240080        7      -0.02603576       0.00549049       0.00432258
Li       3.08588297       0.00000000       0.00000000        8      -0.00000080      -0.00000167      -0.00000069
Li       0.00000000       0.00000000       6.51640912        9       0.00000024       0.00000089      -0.00000084
Li       3.08588297       4.00929929       0.00000000       10      -0.00000036       0.00000035      -0.00000125
Li       0.00000000       4.00929929       6.51640912       11       0.00000047       0.00000069      -0.00000044
P        0.94051010       2.00464965       1.16601784       12      -0.02067202      -0.00000079       0.02376201
P        5.23125583       6.01394894      11.86680040       13       0.02066659      -0.00000017      -0.02375886
P        4.02639307       6.01394894       5.35039128       14      -0.02066799       0.00000257      -0.02375727
P        2.14537286       2.00464965       7.68242696       15       0.02066856      -0.00000123       0.02375627
S        5.08970823       2.00464965       1.30575389       16      -0.25450590       0.00000039       0.01679061
S        1.08205770       6.01394894      11.72706435       17       0.25450784      -0.00000068      -0.01679212
S        2.00382526       6.01394894       5.21065523       18      -0.25450593       0.00000034      -0.01679136
S        4.16794067       2.00464965       7.82216301       19       0.25450069      -0.00000134       0.01679008
S        1.68132889       2.00464965      12.25955363       20       0.10912239      -0.00000041      -0.16719592
S        4.49043704       6.01394894       0.77326461       21      -0.10912022       0.00000043       0.16718087
S        4.76721186       6.01394894       7.28967373       22       0.10912076       0.00000046       0.16717994
S        1.40455407       2.00464965       5.74314451       23      -0.10911964       0.00000016      -0.16718154
S        1.67233151       0.29287049       2.00524453       24       0.13957787      -0.21272555       0.08709951
S        4.49943442       7.72572810      11.02757371       25      -0.13957579       0.21272525      -0.08709256
S        4.75821447       7.72572810       4.51116459       26       0.13957523       0.21272524      -0.08709006
S        1.41355146       0.29287049       8.52165365       27      -0.13957621      -0.21271977       0.08709027
S        4.49943442       4.30216979      11.02757371       28      -0.13957782      -0.21272549      -0.08709411
S        1.67233151       3.71642880       2.00524453       29       0.13957837       0.21272670       0.08709904
S        1.41355146       3.71642880       8.52165365       30      -0.13957518       0.21271977       0.08709218
S        4.75821447       4.30216979       4.51116459       31       0.13957679      -0.21272577      -0.08709291
