4
Lattice="3.128588 0.0 0.0 -1.5642939988088433 2.709436998432005 0.0 0.0 0.0 5.016955" Properties=species:S:1:pos:R:3:spacegroup_kinds:I:1:forces:R:3 spacegroup="P 1" unit_cell=conventional occupancy="_JSON {\"0\": {\"Al\": 1}, \"1\": {\"Al\": 1}, \"2\": {\"N\": 1}, \"3\": {\"N\": 1}}" energy=-29.673717498779297 free_energy=-29.673717498779297 stress="-0.0022252006456255913 -1.3638770042234682e-06 1.2773456958825591e-08 -1.3638770042234682e-06 -0.0022272327914834023 -4.5425739614302074e-08 1.2773456958825591e-08 -4.5425739614302074e-08 -0.005453618708997965" pbc="T T T"
Al       1.56429556       0.90314476       2.50490041        0      -0.00003507       0.00002094       0.00553048
Al      -0.00000156       1.80629224       5.01337791        1       0.00003374      -0.00001896       0.00552475
N        1.56429556       0.90314476       4.41849749        2      -0.00003589       0.00001975      -0.00553034
N       -0.00000156       1.80629224       1.91001999        3       0.00003715      -0.00002166      -0.00552510
