4
Lattice="3.128588 0.0 0.0 -1.5642939988088433 2.709436998432005 0.0 0.0 0.0 5.016955" Properties=species:S:1:pos:R:3:spacegroup_kinds:I:1:momenta:R:3:forces:R:3 spacegroup="P 1" unit_cell=conventional occupancy="_JSON {\"0\": {\"Al\": 1}, \"1\": {\"Al\": 1}, \"2\": {\"N\": 1}, \"3\": {\"N\": 1}}" energy=-29.623743057250977 free_energy=-29.623743057250977 stress="0.004300228785723448 -0.008672640658915043 0.002881876891478896 -0.008672640658915043 -0.006943671964108944 -0.004434574395418167 0.002881876891478896 -0.004434574395418167 -0.014839167706668377" pbc="T T T"
Al       1.54321204       0.89379622       2.53645985        0      -0.00705412      -0.41529140       0.79444934      -0.25249925       0.39302915      -0.87834638
Al       0.03580898       1.79893950       4.98957806        1       0.09337922      -0.29525126      -0.61191872      -0.16601099       0.14058235       0.62745333
N        1.59619761       0.90645095       4.40111847        2      -0.02189823       1.09350677       0.27120794      -0.08899747      -0.09593807       0.34911054
N       -0.05911261       1.83464209       1.91219262        3      -0.06442688      -0.38296416      -0.45373857       0.50750768      -0.43767357      -0.09821764
