4
Lattice="3.128588 0.0 0.0 -1.5642939988088433 2.709436998432005 0.0 0.0 0.0 5.016955" Properties=species:S:1:pos:R:3:spacegroup_kinds:I:1:momenta:R:3:forces:R:3 spacegroup="P 1" unit_cell=conventional occupancy="_JSON {\"0\": {\"Al\": 1}, \"1\": {\"Al\": 1}, \"2\": {\"N\": 1}, \"3\": {\"N\": 1}}" energy=-29.673717498779297 free_energy=-29.673717498779297 stress="-0.00222526746802032 -1.3989564422445255e-06 -2.290754252953775e-08 -1.3989564422445255e-06 -0.002227471210062504 -5.375595435452851e-08 -2.290754252953775e-08 -5.375595435452851e-08 -0.005453732330352068" pbc="T T T"
Al       1.56429556       0.90314476       2.50490041        0       0.68448204       0.53670047       0.91071479      -0.00003447       0.00002115       0.00553182
Al      -0.00000156       1.80629224       5.01337791        1       0.31075784       0.39520501      -1.87833745       0.00003556      -0.00002050       0.00552380
N        1.56429556       0.90314476       4.41849749        2      -0.23293981      -0.79739853      -0.40745139      -0.00003726       0.00002117      -0.00553018
N       -0.00000156       1.80629224       1.91001999        3      -0.76230006      -0.13450696       1.37507406       0.00003600      -0.00002167      -0.00552528
4
Lattice="3.128588 0.0 0.0 -1.5642939988088433 2.709436998432005 0.0 0.0 0.0 5.016955" Properties=species:S:1:pos:R:3:spacegroup_kinds:I:1:momenta:R:3:forces:R:3 spacegroup="P 1" unit_cell=conventional occupancy="_JSON {\"0\": {\"Al\": 1}, \"1\": {\"Al\": 1}, \"2\": {\"N\": 1}, \"3\": {\"N\": 1}}" energy=-29.43359375 free_energy=-29.43359375 stress="-0.01377344224601984 -0.016446372494101524 0.012948804534971714 -0.016446372494101524 -0.02396865002810955 0.009969719685614109 0.012948804534971714 0.009969719685614109 -0.012059347704052925" pbc="T T T"
Al       1.60246141       0.92231284       2.54150849        0       0.57498204      -0.13492003       1.02882484      -1.31301260      -0.49033248      -0.87831348
Al       0.00328788       1.81111139       4.94718774        1      -0.44725810       0.00118050      -1.07867320      -0.30154204      -0.59423208       1.18011785
N        1.53678588       0.85870780       4.38099595        2       0.14052043      -0.46066721       0.20203867       0.28490844       0.67984462       1.25553656
N       -0.05228245       1.80432671       2.00436659        3      -0.26824435       0.59440674      -0.15219034       1.32964611       0.40471986      -1.55734110
4
Lattice="3.128588 0.0 0.0 -1.5642939988088433 2.709436998432005 0.0 0.0 0.0 5.016955" Properties=species:S:1:pos:R:3:spacegroup_kinds:I:1:momenta:R:3:forces:R:3 spacegroup="P 1" unit_cell=conventional occupancy="_JSON {\"0\": {\"Al\": 1}, \"1\": {\"Al\": 1}, \"2\": {\"N\": 1}, \"3\": {\"N\": 1}}" energy=-29.5672550201416 free_energy=-29.5672550201416 stress="0.012916039675474167 0.0017025229753926396 0.0035793513525277376 0.0017025229753926396 -0.025856884196400642 -0.005369162652641535 0.0035793513525277376 -0.005369162652641535 -0.011435254476964474" pbc="T T T"
Al       1.59598186       0.90138485       2.55101267        0      -0.85003988      -0.64755171      -0.41676268      -0.33522671       0.74370497      -1.26921296
Al      -0.01311799       1.79082859       4.96769657        1      -0.24557001      -0.74327768       1.65595784      -0.18280181      -0.17026678       1.21499634
N        1.52960408       0.86779351       4.41996339        2       0.16413052       0.60763563       0.63654549       0.31887659       0.39321321      -0.09056821
N       -0.00060095       1.87475189       1.90756519        3       0.93147938       0.78319376      -1.87574064       0.19915202      -0.96665138       0.14478493
4
Lattice="3.128588 0.0 0.0 -1.5642939988088433 2.709436998432005 0.0 0.0 0.0 5.016955" Properties=species:S:1:pos:R:3:spacegroup_kinds:I:1:momenta:R:3:forces:R:3 spacegroup="P 1" unit_cell=conventional occupancy="_JSON {\"0\": {\"Al\": 1}, \"1\": {\"Al\": 1}, \"2\": {\"N\": 1}, \"3\": {\"N\": 1}}" energy=-29.406272888183594 free_energy=-29.406272888183594 stress="0.010688845999538898 0.016498150303959846 -0.008163988590240479 0.016498150303959846 -0.009423241019248962 -0.015554023906588554 -0.008163988590240479 -0.015554023906588554 -0.06125408411026001" pbc="T T T"
Al       1.53423928       0.87298460       2.51007454        0      -1.60925396       0.09619191      -1.03262319       0.74608636       1.00298750       0.03482484
Al      -0.01349003       1.78470222       5.05709165        1       0.21561224      -0.04339791       1.72443270       0.02271171       0.40732917      -1.66436958
N        1.55208974       0.92225131       4.42203507        2       0.38659418       0.63935819      -0.93002875       0.04495856      -0.39009658      -0.56986183
N        0.09667397       1.88681818       1.81230435        3       1.00704753      -0.69215219       0.23821929      -0.81375659      -1.02021980       2.19940639
4
Lattice="3.128588 0.0 0.0 -1.5642939988088433 2.709436998432005 0.0 0.0 0.0 5.016955" Properties=species:S:1:pos:R:3:spacegroup_kinds:I:1:momenta:R:3:forces:R:3 spacegroup="P 1" unit_cell=conventional occupancy="_JSON {\"0\": {\"Al\": 1}, \"1\": {\"Al\": 1}, \"2\": {\"N\": 1}, \"3\": {\"N\": 1}}" energy=-29.201902389526367 free_energy=-29.201902389526367 stress="-0.026440788060426712 0.03815509378910065 -0.03138260915875435 0.03815509378910065 -0.004877487197518349 0.0015437520341947675 -0.03138260915875435 0.0015437520341947675 -0.05181992053985596" pbc="T T T"
Al       1.49382400       0.87740191       2.48150490        0      -0.08661671      -0.02748792       0.25595525       2.48428178      -0.46186334       1.22611678
Al      -0.02076736       1.79337852       5.08843292        1       0.00716725       0.60209055      -1.27068320       0.64723247       0.57433355      -2.36004090
N        1.60157223       0.96971685       4.33361323        2       0.49437286       0.53651048      -0.17473349      -0.53882629      -0.70145202       1.74608994
N        0.13924908       1.81421454       1.89535168        3      -0.41492339      -1.11111309       1.18946147      -2.59268761       0.58898175      -0.61216545
4
Lattice="3.128588 0.0 0.0 -1.5642939988088433 2.709436998432005 0.0 0.0 0.0 5.016955" Properties=species:S:1:pos:R:3:spacegroup_kinds:I:1:momenta:R:3:forces:R:3 spacegroup="P 1" unit_cell=conventional occupancy="_JSON {\"0\": {\"Al\": 1}, \"1\": {\"Al\": 1}, \"2\": {\"N\": 1}, \"3\": {\"N\": 1}}" energy=-29.574628829956055 free_energy=-29.574628829956055 stress="-0.023617848753929138 -0.014321430586278439 -0.011127985082566738 -0.014321430586278439 0.015030072070658207 -0.002854699268937111 -0.011127985082566738 -0.002854699268937111 -0.014440206810832024" pbc="T T T"
Al       1.53421959       0.88369268       2.53780581        0       1.55944072       0.36820855       1.55970982       0.29264516      -0.24000470      -0.91367769
Al      -0.00048005       1.82107764       4.98837341        1       1.01688603       0.86374294      -2.47525352       0.94369757       0.52251685       0.78486454
N        1.63583966       0.96584651       4.40663185        2      -0.31021934      -0.52489281       1.27117330      -1.15103936      -0.78907192       0.05688003
N       -0.01177519       1.75252281       1.90648734        3      -2.26610743      -0.70705871      -0.35562959      -0.08530317       0.50655991       0.07193303
4
Lattice="3.128588 0.0 0.0 -1.5642939988088433 2.709436998432005 0.0 0.0 0.0 5.016955" Properties=species:S:1:pos:R:3:spacegroup_kinds:I:1:momenta:R:3:forces:R:3 spacegroup="P 1" unit_cell=conventional occupancy="_JSON {\"0\": {\"Al\": 1}, \"1\": {\"Al\": 1}, \"2\": {\"N\": 1}, \"3\": {\"N\": 1}}" energy=-29.372072219848633 free_energy=-29.372072219848633 stress="-0.00562971830368042 -0.018719378858804703 0.015849502757191658 -0.018719378858804703 -0.032273098826408386 0.01721222698688507 0.015849502757191658 0.01721222698688507 -0.0072981552220880985" pbc="T T T"
Al       1.57072833       0.88046440       2.56331975        0      -0.00039228      -0.37629513      -0.57844079      -1.34386516      -0.44065738      -1.50707817
Al       0.05055074       1.86456081       4.94968571        1       0.52727036       0.77034189       1.04960226      -0.49129072      -1.36433709       1.82584965
N        1.58204797       0.88176661       4.44992389        2      -0.27832259      -1.02263402      -0.55459242       0.15003760       1.16376066      -0.85894978
N       -0.12661086       1.75915456       1.88869866        3      -0.24855556       0.62858723       0.08343088       1.68511820       0.64123392       0.54017848
4
Lattice="3.128588 0.0 0.0 -1.5642939988088433 2.709436998432005 0.0 0.0 0.0 5.016955" Properties=species:S:1:pos:R:3:spacegroup_kinds:I:1:momenta:R:3:forces:R:3 spacegroup="P 1" unit_cell=conventional occupancy="_JSON {\"0\": {\"Al\": 1}, \"1\": {\"Al\": 1}, \"2\": {\"N\": 1}, \"3\": {\"N\": 1}}" energy=-29.596925735473633 free_energy=-29.596925735473633 stress="0.01597634144127369 -0.0045061116106808186 0.006018768064677715 -0.0045061116106808186 -0.025499526411294937 -0.004597036633640528 0.006018768064677715 -0.004597036633640528 -0.010013718158006668" pbc="T T T"
Al       1.53284806       0.86390065       2.51395076        0      -1.59464525      -0.16469629      -1.74991303      -0.27820295       0.89915705      -0.15420493
Al       0.06317844       1.83227867       5.00948380        1       0.38439994      -1.80666619       1.59449840      -0.58708459      -0.41271806       0.16725072
N        1.58572476       0.89623786       4.41422580        2       0.14193212       1.12964942      -0.09119091       0.25703987       0.38076848       0.00228127
N       -0.08152108       1.83862419       1.90381441        3       1.06831313       0.84171307       0.24660551       0.60824764      -0.86720729      -0.01532739
4
Lattice="3.128588 0.0 0.0 -1.5642939988088433 2.709436998432005 0.0 0.0 0.0 5.016955" Properties=species:S:1:pos:R:3:spacegroup_kinds:I:1:momenta:R:3:forces:R:3 spacegroup="P 1" unit_cell=conventional occupancy="_JSON {\"0\": {\"Al\": 1}, \"1\": {\"Al\": 1}, \"2\": {\"N\": 1}, \"3\": {\"N\": 1}}" energy=-29.46255111694336 free_energy=-29.46255111694336 stress="-0.005697164218872786 0.010849488899111748 -0.003906656056642532 0.010849488899111748 -0.019133679568767548 -0.012703169137239456 -0.003906656056642532 -0.012703169137239456 -0.011871252208948135" pbc="T T T"
Al       1.48347328       0.88264394       2.44527932        0      -0.30454576       1.01149535      -0.60004446       0.88393158       0.95768309       1.70776987
Al       0.06164411       1.77681260       5.07306067        1      -0.86715278      -0.75617417       0.43048840      -0.30080646       0.71655411      -1.72279835
N        1.61717713       0.94947183       4.40498430        2       0.38645901       0.04830080       0.18623261      -0.07233889      -0.67486095       0.48910624
N       -0.01486933       1.85626147       1.92266699        3       0.78523949      -0.30362200      -0.01667659      -0.51078612      -0.99937642      -0.47407749
4
Lattice="3.128588 0.0 0.0 -1.5642939988088433 2.709436998432005 0.0 0.0 0.0 5.016955" Properties=species:S:1:pos:R:3:spacegroup_kinds:I:1:momenta:R:3:forces:R:3 spacegroup="P 1" unit_cell=conventional occupancy="_JSON {\"0\": {\"Al\": 1}, \"1\": {\"Al\": 1}, \"2\": {\"N\": 1}, \"3\": {\"N\": 1}}" energy=-29.518749237060547 free_energy=-29.518749237060547 stress="-0.02337094396352768 0.0065399776212871075 -0.016098039224743843 0.0065399776212871075 0.006697236560285091 -0.0004824606003239751 -0.016098039224743843 -0.0004824606003239751 -0.022160174325108528" pbc="T T T"
Al       1.50607634       0.94974319       2.46463701        0       1.15921324       0.62635205       1.50689866       1.24247527      -0.60704648       1.15697515
Al       0.01335471       1.75088041       5.06242871        1      -0.91111999       0.14825244      -0.88962489       0.51474679       0.69610739      -1.43088603
N        1.62637963       0.90489617       4.42127852        2      -0.14223546      -0.64065059       0.21498269      -0.71771711      -0.51824313      -0.07984746
N        0.02538011       1.82158364       1.88963028        3      -0.10585781      -0.13395395      -0.83225641      -1.03950489       0.42918262       0.35375828
4
Lattice="3.128588 0.0 0.0 -1.5642939988088433 2.709436998432005 0.0 0.0 0.0 5.016955" Properties=species:S:1:pos:R:3:spacegroup_kinds:I:1:momenta:R:3:forces:R:3 spacegroup="P 1" unit_cell=conventional occupancy="_JSON {\"0\": {\"Al\": 1}, \"1\": {\"Al\": 1}, \"2\": {\"N\": 1}, \"3\": {\"N\": 1}}" energy=-29.60500717163086 free_energy=-29.60500717163086 stress="0.0015959523152559996 -0.006785843521356583 -0.0030955031979829073 -0.006785843521356583 0.0017806615214794874 0.0017243351321667433 -0.0030955031979829073 0.0017243351321667433 -0.02311372198164463" pbc="T T T"
Al       1.56693922       0.93861029       2.54470911        0       1.44875397      -0.98943827       1.48437318      -0.01659270      -0.29131627      -1.20300603
Al      -0.01304567       1.78057345       4.99752455        1       0.01689838       1.11024910      -1.70729912       0.38438779       0.02358290       0.50760329
N        1.58384204       0.87104969       4.42155565        2      -0.67927523      -0.02704909      -0.19037099      -0.39236918       0.15177876      -0.39792493
N        0.00122211       1.81989282       1.85992053        3      -0.78637711      -0.09376179       0.41329699       0.02457411       0.11595465       1.09332776
4
Lattice="3.128588 0.0 0.0 -1.5642939988088433 2.709436998432005 0.0 0.0 0.0 5.016955" Properties=species:S:1:pos:R:3:spacegroup_kinds:I:1:momenta:R:3:forces:R:3 spacegroup="P 1" unit_cell=conventional occupancy="_JSON {\"0\": {\"Al\": 1}, \"1\": {\"Al\": 1}, \"2\": {\"N\": 1}, \"3\": {\"N\": 1}}" energy=-29.470205307006836 free_energy=-29.470205307006836 stress="0.003202618332579732 -0.01780136674642563 0.011838464066386223 -0.01780136674642563 -0.04134931042790413 0.007359910756349564 0.011838464066386223 0.007359910756349564 -0.0051603070460259914" pbc="T T T"
Al       1.62755629       0.89950079       2.54516750        0       1.04970861      -0.99981827      -0.80202992      -1.41065335       0.15933198      -0.91778904
Al      -0.00757055       1.81703570       4.95606289        1      -0.03758014       0.11959860      -0.16512790      -0.26242989      -0.84351695       1.41445792
N        1.52756231       0.85151203       4.42065485        2      -0.42752196       0.29023020      -0.07965640       0.31766343       0.98894739      -0.00115392
N       -0.06966671       1.84442115       1.93994530        3      -0.58460650       0.58998945       1.04681427       1.35542011      -0.30476221      -0.49551460
4
Lattice="3.128588 0.0 0.0 -1.5642939988088433 2.709436998432005 0.0 0.0 0.0 5.016955" Properties=species:S:1:pos:R:3:spacegroup_kinds:I:1:momenta:R:3:forces:R:3 spacegroup="P 1" unit_cell=conventional occupancy="_JSON {\"0\": {\"Al\": 1}, \"1\": {\"Al\": 1}, \"2\": {\"N\": 1}, \"3\": {\"N\": 1}}" energy=-29.452987670898438 free_energy=-29.452987670898438 stress="-0.013225041329860687 -0.023750225082039833 0.00791148841381073 -0.023750225082039833 -0.047931648790836334 -0.007333152461796999 0.00791148841381073 -0.007333152461796999 0.02863292023539543" pbc="T T T"
Al       1.63184043       0.85684029       2.46693548        0      -0.97589068      -0.55899585      -1.34838360      -1.39010739       1.11025989       1.17303479
Al      -0.02377744       1.82170279       4.98999601        1      -0.28018872       0.45883528       1.28013451      -0.08532518       0.08283208       0.34697324
N        1.52792696       0.92957747       4.44479010        2       0.11446485       0.97873231       0.08012558       0.22036119      -0.17398591       0.05598667
N       -0.04718876       1.83921504       2.00086005        3       1.14161453      -0.87857175      -0.01187650       1.25507164      -1.01910603      -1.57599449
4
Lattice="3.128588 0.0 0.0 -1.5642939988088433 2.709436998432005 0.0 0.0 0.0 5.016955" Properties=species:S:1:pos:R:3:spacegroup_kinds:I:1:momenta:R:3:forces:R:3 spacegroup="P 1" unit_cell=conventional occupancy="_JSON {\"0\": {\"Al\": 1}, \"1\": {\"Al\": 1}, \"2\": {\"N\": 1}, \"3\": {\"N\": 1}}" energy=-29.53631591796875 free_energy=-29.53631591796875 stress="-0.01985761895775795 0.013828903436660767 -0.00571736553683877 0.013828903436660767 -0.0031639246735721827 -0.001671028439886868 -0.00571736553683877 -0.001671028439886868 -0.006260376423597336" pbc="T T T"
Al       1.56291509       0.86348348       2.43836896        0      -1.44558882       0.38889120       0.34074994       0.67285758       0.11609302       1.45909393
Al      -0.01834144       1.83613134       5.05736567        1       0.19731439      -0.00921554       1.04742063       0.06595284       0.15003678      -1.19266975
N        1.54726696       0.95741147       4.47045644        2      -0.01023954       0.05685067       0.14843976       0.09761376      -0.44421029      -0.65174389
N        0.05576967       1.77068665       1.90062732        3       1.25851400      -0.43652634      -1.53661031      -0.83642417       0.17808044       0.38531983
4
Lattice="3.128588 0.0 0.0 -1.5642939988088433 2.709436998432005 0.0 0.0 0.0 5.016955" Properties=species:S:1:pos:R:3:spacegroup_kinds:I:1:momenta:R:3:forces:R:3 spacegroup="P 1" unit_cell=conventional occupancy="_JSON {\"0\": {\"Al\": 1}, \"1\": {\"Al\": 1}, \"2\": {\"N\": 1}, \"3\": {\"N\": 1}}" energy=-29.531002044677734 free_energy=-29.531002044677734 stress="-0.01829407550394535 0.0157075934112072 -0.011607696302235126 0.0157075934112072 0.0031480665784329176 0.004605679772794247 -0.011607696302235126 0.004605679772794247 -0.017258774489164352" pbc="T T T"
Al       1.54701075       0.87273545       2.46070915        0       0.71855733      -0.11584385       0.49435367       1.07476640      -0.28505588       1.06925488
Al      -0.01761631       1.84389392       5.05391118        1       0.19346414       0.17720434      -0.69190045       0.23187727      -0.07942054      -1.16825247
N        1.56395353       0.94331123       4.45961398        2       0.32487455      -0.12409437      -0.51346234      -0.11547095      -0.20503193      -0.72920221
N        0.06831354       1.75176765       1.87546342        3      -1.23689601       0.06273385       0.71100909      -1.19117284       0.56950861       0.82819951
4
Lattice="3.128588 0.0 0.0 -1.5642939988088433 2.709436998432005 0.0 0.0 0.0 5.016955" Properties=species:S:1:pos:R:3:spacegroup_kinds:I:1:momenta:R:3:forces:R:3 spacegroup="P 1" unit_cell=conventional occupancy="_JSON {\"0\": {\"Al\": 1}, \"1\": {\"Al\": 1}, \"2\": {\"N\": 1}, \"3\": {\"N\": 1}}" energy=-29.61321449279785 free_energy=-29.61321449279785 stress="-0.008381699211895466 -0.004276676569133997 0.005492865573614836 -0.004276676569133997 -0.01393721904605627 0.0014803878730162978 0.005492865573614836 0.0014803878730162978 0.012475519441068172" pbc="T T T"
Al       1.57767909       0.87033377       2.48321564        0       0.42145906      -0.10086015       0.75449397      -0.50598705       0.14215392       0.64867586
Al       0.00878680       1.84488739       5.00616582        1       0.94842545       0.04829712      -0.67234635      -0.28191006      -0.37569711       0.05943016
N        1.54733737       0.91884311       4.41695258        2      -0.50233571      -0.06173882      -0.86681642       0.26756737       0.16352524       0.34766573
N       -0.02491942       1.77881442       1.96659662        3      -0.86754878       0.11430181       0.78466877       0.52032959       0.07001805      -1.05577159
4
Lattice="3.128588 0.0 0.0 -1.5642939988088433 2.709436998432005 0.0 0.0 0.0 5.016955" Properties=species:S:1:pos:R:3:spacegroup_kinds:I:1:momenta:R:3:forces:R:3 spacegroup="P 1" unit_cell=conventional occupancy="_JSON {\"0\": {\"Al\": 1}, \"1\": {\"Al\": 1}, \"2\": {\"N\": 1}, \"3\": {\"N\": 1}}" energy=-29.557838439941406 free_energy=-29.557838439941406 stress="-0.016363656148314476 -0.0029473858885467052 0.01290360651910305 -0.0029473858885467052 -0.006207517348229885 0.001537531497888267 0.01290360651910305 0.001537531497888267 -0.0027145969215780497" pbc="T T T"
Al       1.59068815       0.88023429       2.52274586        0      -0.41625629       0.17887046       0.33160804      -0.90884227      -0.14030750      -0.36867997
Al       0.01872292       1.83477377       4.97781995        1       0.14974012      -0.20763039      -0.17578564      -0.72829747      -0.10046437       0.72652668
N        1.52039170       0.92489993       4.39464374        2       0.19754362       0.25939884       0.47781793       0.72476029      -0.09604909       0.71574157
N       -0.04216866       1.77342025       1.96745694        3       0.06897254      -0.23063893      -0.63364038       0.91237974       0.33682096      -1.07358849
4
Lattice="3.128588 0.0 0.0 -1.5642939988088433 2.709436998432005 0.0 0.0 0.0 5.016955" Properties=species:S:1:pos:R:3:spacegroup_kinds:I:1:momenta:R:3:forces:R:3 spacegroup="P 1" unit_cell=conventional occupancy="_JSON {\"0\": {\"Al\": 1}, \"1\": {\"Al\": 1}, \"2\": {\"N\": 1}, \"3\": {\"N\": 1}}" energy=-29.621110916137695 free_energy=-29.621110916137695 stress="-0.02150076813995838 0.005276408512145281 -0.003267457243055105 0.005276408512145281 0.01065764855593443 0.0019249418983235955 -0.003267457243055105 0.0019249418983235955 -0.0015898485435172915" pbc="T T T"
Al       1.54767649       0.89587761       2.50832859        0      -0.85810045       0.46896500      -1.00003029       0.39160603      -0.39029086      -0.15032724
Al       0.00665804       1.82067515       5.00342497        1      -0.72966917      -0.11082671       1.46536726      -0.00949858       0.22697026       0.34863168
N        1.57185928       0.94293297       4.45440720        2       0.62349844      -0.37686506       0.64593186      -0.01969863      -0.43335313      -0.83890092
N        0.01256033       1.75229421       1.88600533        3       0.96427117       0.01872678      -1.11126884      -0.36240873       0.59667373       0.64059627
4
Lattice="3.128588 0.0 0.0 -1.5642939988088433 2.709436998432005 0.0 0.0 0.0 5.016955" Properties=species:S:1:pos:R:3:spacegroup_kinds:I:1:momenta:R:3:forces:R:3 spacegroup="P 1" unit_cell=conventional occupancy="_JSON {\"0\": {\"Al\": 1}, \"1\": {\"Al\": 1}, \"2\": {\"N\": 1}, \"3\": {\"N\": 1}}" energy=-29.520854949951172 free_energy=-29.520854949951172 stress="-0.014047384262084961 0.01182080153375864 -0.014255532063543797 0.01182080153375864 -0.005614809226244688 0.009361550211906433 -0.014255532063543797 0.009361550211906433 -0.019570903852581978" pbc="T T T"
Al       1.52999426       0.91403916       2.46474573        0       0.09545065      -0.23101232      -1.18071320       1.21875191      -0.63577133       0.99289834
Al      -0.00890651       1.82180732       5.05208965        1       0.31216889      -0.10747463       0.45537626       0.39472595      -0.38378391      -1.12710166
N        1.59437709       0.88605553       4.45928985        2      -0.04798990      -0.53350327      -0.20523259      -0.40810430       0.35578957      -0.79021704
N        0.05384451       1.77207219       1.87144999        3      -0.35962964       0.87199025       0.93056954      -1.20537353       0.66376567       0.92442024
4
Lattice="3.128588 0.0 0.0 -1.5642939988088433 2.709436998432005 0.0 0.0 0.0 5.016955" Properties=species:S:1:pos:R:3:spacegroup_kinds:I:1:momenta:R:3:forces:R:3 spacegroup="P 1" unit_cell=conventional occupancy="_JSON {\"0\": {\"Al\": 1}, \"1\": {\"Al\": 1}, \"2\": {\"N\": 1}, \"3\": {\"N\": 1}}" energy=-29.61878776550293 free_energy=-29.61878776550293 stress="0.010117453522980213 -0.0018219564808532596 -0.0018730461597442627 -0.0018219564808532596 -0.02478322573006153 0.004591071046888828 -0.0018730461597442627 0.004591071046888828 2.6366196834715083e-05" pbc="T T T"
Al       1.53818031       0.90928017       2.47247635        0       0.23228604      -0.27447281       1.41733300       0.21200904       0.18702143       0.85530776
Al       0.01802692       1.81430742       5.03506512        1       0.60360759      -0.42930289      -1.11140764       0.03760089      -0.69444156      -0.55142474
N        1.59518015       0.85128046       4.42414647        2       0.09084656       0.02420715      -0.77345480      -0.19470125       0.84070563       0.01228152
N       -0.01452981       1.83034437       1.92467358        3      -0.92674020       0.67956853       0.46752942      -0.05490863      -0.33328545      -0.31616446
4
Lattice="3.128588 0.0 0.0 -1.5642939988088433 2.709436998432005 0.0 0.0 0.0 5.016955" Properties=species:S:1:pos:R:3:spacegroup_kinds:I:1:momenta:R:3:forces:R:3 spacegroup="P 1" unit_cell=conventional occupancy="_JSON {\"0\": {\"Al\": 1}, \"1\": {\"Al\": 1}, \"2\": {\"N\": 1}, \"3\": {\"N\": 1}}" energy=-29.623743057250977 free_energy=-29.623743057250977 stress="0.004300228785723448 -0.008672640658915043 0.002881876891478896 -0.008672640658915043 -0.006943671964108944 -0.004434574395418167 0.002881876891478896 -0.004434574395418167 -0.014839167706668377" pbc="T T T"
Al       1.54321204       0.89379622       2.53645985        0      -0.00705412      -0.41529140       0.79444934      -0.25249925       0.39302915      -0.87834638
Al       0.03580898       1.79893950       4.98957806        1       0.09337922      -0.29525126      -0.61191872      -0.16601099       0.14058235       0.62745333
N        1.59619761       0.90645095       4.40111847        2      -0.02189823       1.09350677       0.27120794      -0.08899747      -0.09593807       0.34911054
N       -0.05911261       1.83464209       1.91219262        3      -0.06442688      -0.38296416      -0.45373857       0.50750768      -0.43767357      -0.09821764
