4
Lattice="3.128588 0.0 0.0 -1.5642939988088433 2.709436998432005 0.0 0.0 0.0 5.016955" Properties=species:S:1:pos:R:3:spacegroup_kinds:I:1:forces:R:3 spacegroup="P 1" unit_cell=conventional occupancy="_JSON {\"0\": {\"Al\": 1}, \"1\": {\"Al\": 1}, \"2\": {\"N\": 1}, \"3\": {\"N\": 1}}" energy=-29.673717498779297 free_energy=-29.673717498779297 stress="-0.00222526746802032 -1.3989564422445255e-06 -2.290754252953775e-08 -1.3989564422445255e-06 -0.002227471210062504 -5.375595435452851e-08 -2.290754252953775e-08 -5.375595435452851e-08 -0.005453732330352068" pbc="T T T"
Al       1.56429556       0.90314476       2.50490041        0      -0.00003447       0.00002115       0.00553182
Al      -0.00000156       1.80629224       5.01337791        1       0.00003556      -0.00002050       0.00552380
N        1.56429556       0.90314476       4.41849749        2      -0.00003726       0.00002117      -0.00553018
N       -0.00000156       1.80629224       1.91001999        3       0.00003600      -0.00002167      -0.00552528
