32
Lattice="6.17176593 0.0 0.0 0.0 8.01859859 0.0 0.0 0.0 13.03281824" Properties=species:S:1:pos:R:3:spacegroup_kinds:I:1:forces:R:3 spacegroup="P 1" unit_cell=conventional occupancy="_JSON {\"0\": {\"Li\": 1}, \"1\": {\"Li\": 1}, \"2\": {\"Li\": 1}, \"3\": {\"Li\": 1}, \"4\": {\"Li\": 1}, \"5\": {\"Li\": 1}, \"6\": {\"Li\": 1}, \"7\": {\"Li\": 1}, \"8\": {\"Li\": 1}, \"9\": {\"Li\": 1}, \"10\": {\"Li\": 1}, \"11\": {\"Li\": 1}, \"12\": {\"P\": 1}, \"13\": {\"P\": 1}, \"14\": {\"P\": 1}, \"15\": {\"P\": 1}, \"16\": {\"S\": 1}, \"17\": {\"S\": 1}, \"18\": {\"S\": 1}, \"19\": {\"S\": 1}, \"20\": {\"S\": 1}, \"21\": {\"S\": 1}, \"22\": {\"S\": 1}, \"23\": {\"S\": 1}, \"24\": {\"S\": 1}, \"25\": {\"S\": 1}, \"26\": {\"S\": 1}, \"27\": {\"S\": 1}, \"28\": {\"S\": 1}, \"29\": {\"S\": 1}, \"30\": {\"S\": 1}, \"31\": {\"S\": 1}}" energy=-140.3463134765625 free_energy=-140.3463134765625 stress="-0.0028886073268949986 5.7367604000546635e-09 -3.6849752138579106e-09 5.7367604000546635e-09 -0.0040722317062318325 2.8392724615855514e-08 -3.6849752138579106e-09 2.8392724615855514e-08 -0.002593575045466423" pbc="T T T"
Li       2.40166817       0.26892252       4.33377960        0      -0.01548995       0.00236072       0.00063476
Li       3.77009791       7.74967602       8.69903849        1       0.01548924      -0.00236115      -0.00063169
Li       5.48755104       7.74967600       2.18262941        2      -0.01549270      -0.00235961      -0.00063270
Li       0.68421476       0.26892249      10.85018874        3       0.01549328       0.00236310       0.00063306
Li       3.77009788       4.27822190       8.69903842        4       0.01548849       0.00235840      -0.00063352
Li       2.40166815       3.74037679       4.33377962        5      -0.01548982      -0.00235972       0.00063381
Li       0.68421479       3.74037680      10.85018871        6       0.01549064      -0.00236064       0.00063213
Li       5.48755101       4.27822186       2.18262939        7      -0.01549068       0.00235920      -0.00063096
Li       3.08588291      -0.00000008       0.00000005        8      -0.00000071       0.00000249      -0.00000001
Li       0.00000002      -0.00000003       6.51640921        9       0.00000124       0.00000095       0.00000034
Li       3.08588293       4.00929937      -0.00000005       10      -0.00000246      -0.00000172      -0.00000076
Li      -0.00000001       4.00929920       6.51640916       11      -0.00000056      -0.00000206      -0.00000159
P        0.93932952       2.00464929       1.16793468       12      -0.00066872       0.00001371       0.03303445
P        5.23243626       6.01394884      11.86488427       13       0.00067067      -0.00000276      -0.03306077
P        4.02521222       6.01394889       5.34847530       14      -0.00065243      -0.00000022      -0.03306425
P        2.14655384       2.00464966       7.68434316       15       0.00065281       0.00000019       0.03305143
S        5.07612372       2.00464966       1.30682516       16       0.00280084       0.00000023       0.01274901
S        1.09564246       6.01394882      11.72599299       17      -0.00280920      -0.00000052      -0.01274553
S        1.99024100       6.01394895       5.20958389       18       0.00279234       0.00000152      -0.01274388
S        4.18152501       2.00464970       7.82323419       19      -0.00279240       0.00000122       0.01274855
S        1.68772171       2.00464972      12.25093570       20       0.03397131      -0.00000004       0.02524666
S        4.48404410       6.01394888       0.78188256       21      -0.03397296       0.00000095      -0.02523702
S        4.77360471       6.01394893       7.29829159       22       0.03397177       0.00000039      -0.02523835
S        1.39816136       2.00464970       5.73452692       23      -0.03397331      -0.00000032       0.02523986
S        1.68016699       0.28147998       2.00960383       24       0.02273700      -0.00260207      -0.01691567
S        4.49159898       7.73711930      11.02321407       25      -0.02272931       0.00258610       0.01692611
S        4.76604990       7.73711923       4.50680507       26       0.02272853       0.00258088       0.01692954
S        1.40571581       0.28147963       8.52601310       27      -0.02272702      -0.00258463      -0.01692697
S        4.49159897       4.29077884      11.02321425       28      -0.02272863      -0.00258535       0.01692428
S        1.68016704       3.72781964       2.00960388       29       0.02273038       0.00258563      -0.01692291
S        1.40571581       3.72781968       8.52601317       30      -0.02272729       0.00258688      -0.01692795
S        4.76604994       4.29077865       4.50680509       31       0.02272932      -0.00258189       0.01693067
