56
Lattice="10.7619164 0.0 0.0 -9.665296305262016 4.732958053065482 0.0 -0.5483100463354086 -2.3664790220718444 10.484177494289693" Properties=species:S:1:pos:R:3:spacegroup_kinds:I:1:momenta:R:3:forces:R:3 spacegroup="P 1" unit_cell=conventional occupancy="_JSON {\"0\": {\"H\": 1}, \"1\": {\"H\": 1}, \"2\": {\"H\": 1}, \"3\": {\"H\": 1}, \"4\": {\"H\": 1}, \"5\": {\"H\": 1}, \"6\": {\"H\": 1}, \"7\": {\"H\": 1}, \"8\": {\"H\": 1}, \"9\": {\"H\": 1}, \"10\": {\"H\": 1}, \"11\": {\"H\": 1}, \"12\": {\"H\": 1}, \"13\": {\"H\": 1}, \"14\": {\"H\": 1}, \"15\": {\"H\": 1}, \"16\": {\"H\": 1}, \"17\": {\"H\": 1}, \"18\": {\"H\": 1}, \"19\": {\"H\": 1}, \"20\": {\"H\": 1}, \"21\": {\"H\": 1}, \"22\": {\"H\": 1}, \"23\": {\"H\": 1}, \"24\": {\"H\": 1}, \"25\": {\"H\": 1}, \"26\": {\"H\": 1}, \"27\": {\"H\": 1}, \"28\": {\"H\": 1}, \"29\": {\"H\": 1}, \"30\": {\"H\": 1}, \"31\": {\"H\": 1}, \"32\": {\"C\": 1}, \"33\": {\"C\": 1}, \"34\": {\"C\": 1}, \"35\": {\"C\": 1}, \"36\": {\"C\": 1}, \"37\": {\"C\": 1}, \"38\": {\"C\": 1}, \"39\": {\"C\": 1}, \"40\": {\"C\": 1}, \"41\": {\"C\": 1}, \"42\": {\"C\": 1}, \"43\": {\"C\": 1}, \"44\": {\"C\": 1}, \"45\": {\"C\": 1}, \"46\": {\"C\": 1}, \"47\": {\"C\": 1}, \"48\": {\"O\": 1}, \"49\": {\"O\": 1}, \"50\": {\"O\": 1}, \"51\": {\"O\": 1}, \"52\": {\"O\": 1}, \"53\": {\"O\": 1}, \"54\": {\"O\": 1}, \"55\": {\"O\": 1}}" energy=-313.621826171875 free_energy=-313.621826171875 stress="-0.006905531510710716 -0.001385296112857759 -0.004504738375544548 -0.001385296112857759 0.009439072571694851 0.005600019823759794 -0.004504738375544548 0.005600019823759794 0.013406923040747643" pbc="T T T"
H        0.49738851       1.84331583       1.77824701        0      -0.10613633      -0.09781674       0.11564555      -0.18202782       0.31331944       0.59540033
H        0.10556095      -0.11663770       8.27653527        1       0.04015908      -0.13169528       0.14437835      -0.36897406      -0.78896797       0.22591226
H        6.62289152      -0.91207447       5.20265725        2      -0.16864364       0.10450131      -0.19164042       0.98593616      -0.03107975       0.77321172
H        3.36922869       0.56254895       5.08036069        3       0.12068427      -0.12390832       0.11664163      -0.39409190      -0.59535462      -0.23537354
H        5.95301316       0.59228733       3.38812065        4       0.14111210      -0.33747124      -0.07871994      -0.93092126      -0.50391829       0.87667966
H        5.01744013       0.42520649       7.32442033        5      -0.23162751       0.06489404      -0.14197712      -0.38864976      -1.26104820      -0.47847664
H       -1.57731814       0.54128672      10.53958352        6      -0.12407228      -0.08816718      -0.07763712      -0.37742120      -0.46802133       0.30722573
H        2.69863436       2.00433386       0.26116688        7      -0.05404083       0.01557203      -0.10225836      -0.72495675      -0.67533475      -0.86531520
H       -1.22303998       1.63674042       1.75940509        8      -0.05424900       0.24253149      -0.13897886      -0.49740964      -0.09367596       0.10530700
H       -8.93359148       2.96971033       8.47514804        9      -0.06041940      -0.12559570      -0.10761974       0.36625797      -0.63055182       0.55259860
H       -2.26849142       4.25936910       6.83350214       10       0.20578934       0.12214749       0.33238279      -0.06949948      -0.47619265      -0.34378219
H       -6.68836114       4.95609498       3.39407468       11      -0.06212370       0.10326034      -0.15892916       0.13254204      -0.56484264       0.15242791
H       -3.12925493       0.32645887       3.01954339       12       0.09286583       0.17897913      -0.00989652       0.31409132       0.11226038       0.01380609
H       -6.80751097       1.79512315       7.74588630       13       0.11313686      -0.05419630      -0.04504018      -2.35592365       0.59493685      -0.52510184
H       -1.67751200       0.97559864       8.80862500       14       0.00516077      -0.30016363      -0.16851313      -0.66053832       0.17536479       0.81923103
H       -7.85157900       2.25969121       2.02092844       15       0.06193702       0.16966630       0.04108776       0.45021898       0.30493242      -0.97371912
H       -1.03679277       0.54726050       4.10971769       16       0.09384574       0.18126118      -0.07858780       0.29054508       0.47456211       0.73892927
H        1.41496429       2.60741850       5.94194786       17       0.17914741       0.16207868      -0.08142858       0.04019504      -0.18982525       0.67823112
H       -0.64058326       2.00872421       6.06364861       18      -0.05634316       0.12337118       0.04032494      -0.53551805       0.51596880      -0.09276244
H        0.85977710      -0.92446406       4.06230145       19       0.08226704       0.01615545       0.13954149      -0.43777984      -0.05475639       0.42651731
H        7.07832351       1.52716321       0.77918409       20       0.03746013       0.06299049      -0.11847610      -0.51151240      -0.36469299      -0.19010133
H       -5.65481840       2.28567684       9.73114977       21       0.07723521       0.36926647      -0.07796241       0.09997241      -0.39055640       0.05157117
H        6.08095737      -2.02800089       9.57309393       22       0.04996203       0.13992241      -0.04251293       0.10451897      -0.44055656      -0.00564047
H       -5.39307842       3.26285551       1.28813587       23      -0.08191825      -0.05415529       0.26987195      -0.86360526      -0.75486469      -0.77635622
H       -0.07299381       0.27971752       1.81917007       24       0.13898007       0.34269390       0.14181178      -0.42564043      -0.34437978       0.62044430
H       -1.06699989      -1.51563984       8.21163910       25      -0.20145822       0.01373097       0.07616481      -0.17211929      -0.24385233       0.51164752
H       -2.96209880       2.60530244       6.43440242       26       0.06315807      -0.07174970      -0.16381664       0.16209471       0.09857953       0.31126696
H       -6.35719974       3.51669260       4.57538914       27       0.16449705       0.18567925       0.02440245      -0.60311139       1.40275025      -0.34498614
H       -3.82677334       2.00991120       3.18430547       28       0.08980662      -0.11710507      -0.00472104       0.23109087       0.02061121      -0.20068362
H       -5.17636490       2.03285210       7.19923521       29       0.10905422      -0.18779687       0.15105956      -0.36806679      -0.23563144       0.74252588
H       -0.79357723       4.53174514      -0.43569580       30      -0.12627989      -0.10201568      -0.01900632      -0.09977148       0.06218725       0.11299565
H        2.31575685       1.30675620      11.36317816       31       0.12164012       0.07458714      -0.08519227       0.08104113      -0.48912483      -0.09376647
C       -0.37163612       1.38708489       3.80590653       32       0.82677609       0.29513598       0.09766196       0.43049538      -0.84297669      -2.02712488
C        0.11847917      -1.18778297       6.49983783       33      -0.62840517      -0.18736707      -0.14628051      -0.37041360       0.27214086      -0.96542156
C       -0.97555881       2.96185321       5.57576499       34      -0.36449391      -1.07571370       0.20948530       0.37155557       0.17795719       0.59156668
C        1.35011575      -0.15700511       4.68315327       35      -0.02227960       0.95830894       0.13073051       0.73834592       1.50495315       0.40339875
C        6.36784114       0.86650859       1.33870134       36       0.30590074       0.88519158       1.28776916       1.97925425      -0.30297047       0.89318150
C       -5.53677838       1.29363401       9.24627702       37       0.27688719      -0.37684525       0.66636790      -0.66257781      -0.77059209       0.58603907
C       -3.39932674       1.69730072      10.02118770       38      -0.84111571      -0.44256821       0.59810059       0.37919968       0.54999971       0.65976763
C        4.71880460       2.50518183       0.70336301       39       0.38985041       0.88224182      -0.51305597      -0.59658933       1.44278097       0.49372140
C       -0.32683935       1.26219670       2.24609207       40      -0.63948209       0.50546031       0.23424357       0.77351844       0.79704183      -0.39456671
C       -0.05210443      -1.19852050       8.01058151       41       0.11582234      -0.65736848      -0.92748220       0.85166550       1.37446749      -1.02303457
C       -2.37909939       3.46525761       6.06278710       42      -0.05353592       0.08466646      -0.15002990      -0.40583354      -0.60533237      -1.67186689
C        2.83806341      -0.17358542       4.41939506       43       0.55230182       0.76816034      -0.43150018       1.06822586      -0.67909884       0.54370987
C        6.77902024       0.98017856       2.84378930       44      -1.12306932      -0.45029420       0.26639944      -0.51442170       0.02888878      -1.28143966
C       -5.86817673       1.36776542       7.79427943       45      -0.98979855      -0.05587652      -0.83441624       2.87883997       1.13957024      -0.55466002
C       -1.97699416       1.28319931       9.85895618       46       0.40696924      -0.18668238       0.33790396       1.72742021       0.51335400      -1.56749487
C        3.19008751       2.61285369       0.97606095       47       0.25747320       0.90120668      -0.18332889       1.07155895       1.22873378       1.82996762
O       -0.85758713       2.66103191       4.11713045       48       0.61684594      -0.37118700       1.25663913      -0.17585240       0.40348119       1.06925511
O        1.08909389      -0.23997555       6.12862831       49      -0.39618437      -0.37804430      -0.11483689       0.12260258      -0.37597486      -0.82796985
O       -1.16050468      -0.72093714       5.97406336       50      -0.34983696      -1.05740219      -0.27246476      -0.47367126      -0.41498864      -0.96765554
O        1.00795472       1.19208932       4.24044427       51      -0.03056997       0.15482523      -1.24559163      -1.03328133      -0.52625126       0.63128883
O       -3.10184422       4.20162633       0.97719076       52      -0.29226530       0.28802515      -0.94690575      -0.31202114       1.32850182      -0.04797640
O        4.30825699       0.33413977       9.75623662       53       0.02704178      -1.15722815      -0.33727211      -0.25940406       0.04012379       0.50475889
O       -4.24389664       0.74756652       9.49746244       54       0.41595397      -0.82784362       0.02625807       0.13963848       0.06729865      -0.42571390
O        5.02961368       1.21054931       1.07684137       55       0.87862766       0.61974627       1.29120722      -0.01922111      -0.82935351       0.05840590
