56
Lattice="10.7619164 0.0 0.0 -9.665296305262016 4.732958053065482 0.0 -0.5483100463354086 -2.3664790220718444 10.484177494289693" Properties=species:S:1:pos:R:3:spacegroup_kinds:I:1:momenta:R:3:forces:R:3 spacegroup="P 1" unit_cell=conventional occupancy="_JSON {\"0\": {\"H\": 1}, \"1\": {\"H\": 1}, \"2\": {\"H\": 1}, \"3\": {\"H\": 1}, \"4\": {\"H\": 1}, \"5\": {\"H\": 1}, \"6\": {\"H\": 1}, \"7\": {\"H\": 1}, \"8\": {\"H\": 1}, \"9\": {\"H\": 1}, \"10\": {\"H\": 1}, \"11\": {\"H\": 1}, \"12\": {\"H\": 1}, \"13\": {\"H\": 1}, \"14\": {\"H\": 1}, \"15\": {\"H\": 1}, \"16\": {\"H\": 1}, \"17\": {\"H\": 1}, \"18\": {\"H\": 1}, \"19\": {\"H\": 1}, \"20\": {\"H\": 1}, \"21\": {\"H\": 1}, \"22\": {\"H\": 1}, \"23\": {\"H\": 1}, \"24\": {\"H\": 1}, \"25\": {\"H\": 1}, \"26\": {\"H\": 1}, \"27\": {\"H\": 1}, \"28\": {\"H\": 1}, \"29\": {\"H\": 1}, \"30\": {\"H\": 1}, \"31\": {\"H\": 1}, \"32\": {\"C\": 1}, \"33\": {\"C\": 1}, \"34\": {\"C\": 1}, \"35\": {\"C\": 1}, \"36\": {\"C\": 1}, \"37\": {\"C\": 1}, \"38\": {\"C\": 1}, \"39\": {\"C\": 1}, \"40\": {\"C\": 1}, \"41\": {\"C\": 1}, \"42\": {\"C\": 1}, \"43\": {\"C\": 1}, \"44\": {\"C\": 1}, \"45\": {\"C\": 1}, \"46\": {\"C\": 1}, \"47\": {\"C\": 1}, \"48\": {\"O\": 1}, \"49\": {\"O\": 1}, \"50\": {\"O\": 1}, \"51\": {\"O\": 1}, \"52\": {\"O\": 1}, \"53\": {\"O\": 1}, \"54\": {\"O\": 1}, \"55\": {\"O\": 1}}" energy=-315.20623779296875 free_energy=-315.20623779296875 stress="0.0015259833307936788 -0.0007349539082497358 -5.841941970174958e-07 -0.0007349539082497358 -0.0014767504762858152 5.36311226539965e-08 -5.841941970174958e-07 5.36311226539965e-08 0.0016979908104985952" pbc="T T T"
H       -0.01248427       2.27696696       1.83153339        0       0.26354636       0.05758816       0.17128558       0.07122692       0.02707737       0.05251730
H        0.46428407      -0.32702137       8.65264411        1       0.35723632       0.30052336      -0.15421514      -0.05205568       0.05564394      -0.05251569
H        7.11696904      -0.62167877       5.76820574        2       0.13651140      -0.03657588      -0.02448058       0.06071837       0.02959688      -0.06332393
H        3.54843712       0.20514534       4.71597175        3       0.04495575       0.01373704       0.24194406      -0.04159845       0.05318723       0.06330303
H        5.94175252       0.08951207       3.41055536        4       0.10004105       0.00919574       0.06893732      -0.07122615      -0.02707691      -0.05251725
H        4.91667413       0.32702137       7.07362213        5       0.03762731       0.23702154      -0.03633186       0.05205747      -0.05563891       0.05251895
H       -1.73601084       0.62167878       9.95806050        6       0.04090260      -0.15000140      -0.41043770      -0.06071864      -0.02958661       0.06332373
H        2.38083113       2.16133369       0.52611700        7       0.07639930       0.13373956      -0.11953039       0.04159794      -0.05318639      -0.06330097
H       -1.38564785       1.18011340       2.11584331        8       0.34764813      -0.24942510       0.01968671       0.00912160       0.09641438       0.00989597
H       -8.45014457       2.81694541       8.36833418        9      -0.04487542       0.24826795       0.27191556       0.03391317       0.09078149      -0.00994032
H       -2.58250803       2.70418269       6.85836100       10       0.00836639       0.05472545      -0.13232917       0.03144339       0.09145387       0.01228216
H       -6.70499477       3.65935988       3.62581649       11      -0.35280026      -0.06406840       0.05024236       0.01202243       0.09588303      -0.01239188
H       -3.44700030       1.18636563       3.12624543       12       0.17759995       0.19181929      -0.04741865      -0.00912164      -0.09641442      -0.00989529
H       -6.59610993       1.91601265       7.35793206       13      -0.06659844      -0.18039638      -0.21144164      -0.03391559      -0.09078115       0.00994131
H       -1.70183007       2.02877537       8.86790524       14      -0.29590695       0.31510437      -0.07166042      -0.03144048      -0.09144831      -0.01229338
H       -7.79294969       3.44007720       1.61627226       15      -0.10166361      -0.21365327       0.15571300      -0.01202443      -0.09588410       0.01238975
H       -0.77544238       0.72057867       4.36236141       16      -0.29135246      -0.04383699      -0.13778795      -0.05580289      -0.06497611       0.06553209
H        1.56164860       2.67260202       6.12181608       17       0.04513471      -0.09416448      -0.19034861       0.02151144      -0.08285743      -0.06550518
H       -0.46393564       1.89516633       6.16016720       18      -0.02388752       0.06229365       0.02104621       0.04679094      -0.08891359       0.03981831
H        0.70181139      -0.86845994       4.32401029       19       0.02574107      -0.11427781      -0.05287528      -0.08095889      -0.05914069      -0.03975114
H        6.70471062       1.64590036       0.87972733       20      -0.14286290      -0.07079985      -0.14118650       0.05580559       0.06498113      -0.06553389
H       -5.84598670       2.06035604       9.60445016       21      -0.29753233       0.02254640      -0.04431235      -0.02151374       0.08285284       0.06550343
H        5.84489385      -1.89516633       9.56609904       22      -0.28312851       0.06560536      -0.15494221      -0.04679312       0.08891542      -0.03981544
H       -5.53445954       3.23493897       0.91807845       23      -0.02208037       0.11416853       0.04301970       0.08095679       0.05914005       0.03974673
H        0.25131050       0.51347389       1.94957474       24       0.15959789      -0.21361364       0.07505588      -0.00851059      -0.01871570      -0.03717769
H       -0.54820374      -1.79480395       8.53460275       25      -0.12868866      -0.15316038      -0.08588331      -0.00033029      -0.02044782       0.03709343
H       -2.80766320       2.46899490       5.11315433       26      -0.07305533       0.00146869      -0.17781296      -0.04083836      -0.01125157       0.00405195
H       -6.60619587       3.34910738       5.37102316       27       0.12888264       0.07074453      -0.23064715       0.03167352      -0.02802473      -0.00411377
H       -5.08395866       1.85300514       3.29251401       28       0.22099581       0.30740365       0.21601993       0.00851465       0.01871291       0.03717761
H       -4.83275446       1.79480396       7.19166349       29      -0.04673026      -0.18471461       0.19482948       0.00034703       0.02045734      -0.03709833
H       -0.92836486       4.63044218       0.12893441       30      -0.09883902       0.19431951       0.04569436       0.04083301       0.01124347      -0.00406398
H        2.32185777       1.38385068      10.35524308       31       0.15211596       0.04921952       0.12080102      -0.03167579       0.02802796       0.00411104
C       -0.12835063       1.44534837       3.84841655       32      -0.28778073       0.91754073       0.18270710      -0.01445594       0.09213176      -0.08206707
C        0.20260826      -1.12485611       6.63576095       33       0.00096406       0.97078231      -0.67128192       0.05361494       0.07627362       0.08205730
C       -0.77226604       2.84130358       5.69336968       34      -0.96473690       0.45234422      -0.54337998      -0.06051195       0.10292802       0.03487827
C        1.39483372      -0.15433229       4.79080781       35       0.83737779      -0.34833687      -0.35976593       0.09947500       0.06571057      -0.03489306
C        6.05761888       0.92113066       1.39367220       36       0.73780001       0.71679960       1.01054651       0.01444708      -0.09213720       0.08206829
C       -5.58356646       1.12485611       9.09050530       37       0.36600935      -0.57579551       1.35161317      -0.05360161      -0.07626313      -0.08205900
C       -3.51207206       1.89165448      10.03289656       38      -0.27702103       0.36712178       0.74445208       0.06052575      -0.10293407      -0.03489025
C        4.53443453       2.52081132       0.45128094       39      -0.47025582       0.22782501       0.51146167      -0.09947044      -0.06571978       0.03490350
C       -0.32593927       1.35886302       2.34265801       40      -0.11966996      -0.73251108       0.28611321      -0.02487625      -0.04884058       0.03836665
C        0.34202778      -1.28942579       8.14151949       41       0.57030904      -0.50578053       0.01064034       0.00090553      -0.05509081      -0.03821138
C       -2.26824862       3.05565688       5.86632716       42      -0.48098077       0.96238649       0.55365818       0.02524418      -0.06073654       0.01393137
C        2.83264719      -0.61974062       4.61785033       43      -0.04860277      -0.55844948       0.33742963      -0.04932038      -0.04330871      -0.01374403
C        6.25520752       1.00761601       2.89943074       44      -0.70747446      -0.11378709      -0.42767829       0.02487136       0.04884332      -0.03836653
C       -5.72298598       1.28942580       7.58474676       45       0.19434055       0.24831833       0.14297097      -0.00092426       0.05507612       0.03821173
C       -2.01608948       1.67730118       9.85993908       46       0.09740524      -0.72425149      -0.69205550      -0.02525470       0.06073168      -0.01389954
C        3.09662106       2.98621965       0.62423841       47      -0.12331172      -0.02208015       0.38636924       0.04932585       0.04330590       0.01374378
O       -0.42625656       2.75924355       4.28180099       48       1.20625674       0.48604619      -0.44497158       0.00567014      -0.06416622       0.01081752
O        1.04798334      -0.07585512       6.20237650       49       0.42305791      -1.01659881      -0.20166176      -0.03317403      -0.05508624      -0.01086303
O       -1.17294689      -0.80803189       6.28015861       50      -0.36133290       0.99731317      -0.30860065      -0.00324825      -0.06212829      -0.01994122
O        1.24638404       1.12493657       4.20401888       51      -0.92624698      -0.21254257      -0.34164539      -0.02462082      -0.05716485       0.01989369
O       -3.30977150       4.34019353       0.96028775       52       0.26500009      -0.83301049      -0.49473951      -0.00567136       0.06416607      -0.01082119
O        4.33297486       0.07585512       9.52388974       53      -0.48283211      -0.49689578       1.25894465       0.03316867       0.05508578       0.01086686
O       -4.20801131       0.80803190       9.44610763       54       0.43498781      -0.06064940      -0.51538975       0.00324817       0.06213030       0.01994687
O        4.68288421       1.24154246       1.03806987       55       0.06343698      -0.82659266      -1.04828579       0.02462485       0.05716862      -0.01989767
56
Lattice="10.7619164 0.0 0.0 -9.665296305262016 4.732958053065482 0.0 -0.5483100463354086 -2.3664790220718444 10.484177494289693" Properties=species:S:1:pos:R:3:spacegroup_kinds:I:1:momenta:R:3:forces:R:3 spacegroup="P 1" unit_cell=conventional occupancy="_JSON {\"0\": {\"H\": 1}, \"1\": {\"H\": 1}, \"2\": {\"H\": 1}, \"3\": {\"H\": 1}, \"4\": {\"H\": 1}, \"5\": {\"H\": 1}, \"6\": {\"H\": 1}, \"7\": {\"H\": 1}, \"8\": {\"H\": 1}, \"9\": {\"H\": 1}, \"10\": {\"H\": 1}, \"11\": {\"H\": 1}, \"12\": {\"H\": 1}, \"13\": {\"H\": 1}, \"14\": {\"H\": 1}, \"15\": {\"H\": 1}, \"16\": {\"H\": 1}, \"17\": {\"H\": 1}, \"18\": {\"H\": 1}, \"19\": {\"H\": 1}, \"20\": {\"H\": 1}, \"21\": {\"H\": 1}, \"22\": {\"H\": 1}, \"23\": {\"H\": 1}, \"24\": {\"H\": 1}, \"25\": {\"H\": 1}, \"26\": {\"H\": 1}, \"27\": {\"H\": 1}, \"28\": {\"H\": 1}, \"29\": {\"H\": 1}, \"30\": {\"H\": 1}, \"31\": {\"H\": 1}, \"32\": {\"C\": 1}, \"33\": {\"C\": 1}, \"34\": {\"C\": 1}, \"35\": {\"C\": 1}, \"36\": {\"C\": 1}, \"37\": {\"C\": 1}, \"38\": {\"C\": 1}, \"39\": {\"C\": 1}, \"40\": {\"C\": 1}, \"41\": {\"C\": 1}, \"42\": {\"C\": 1}, \"43\": {\"C\": 1}, \"44\": {\"C\": 1}, \"45\": {\"C\": 1}, \"46\": {\"C\": 1}, \"47\": {\"C\": 1}, \"48\": {\"O\": 1}, \"49\": {\"O\": 1}, \"50\": {\"O\": 1}, \"51\": {\"O\": 1}, \"52\": {\"O\": 1}, \"53\": {\"O\": 1}, \"54\": {\"O\": 1}, \"55\": {\"O\": 1}}" energy=-314.163330078125 free_energy=-314.163330078125 stress="0.0017965285805985332 -0.006295068189501762 0.004064951557666063 -0.006295068189501762 0.0028976076282560825 0.006800152361392975 0.004064951557666063 0.006800152361392975 -0.004473603330552578" pbc="T T T"
H        0.12223874       2.21335581       1.84744826        0      -0.06388218      -0.04108025      -0.23331078      -0.34890687      -0.46718043       0.26391837
H        0.31702077      -0.21474894       8.50409136        1      -0.41596658       0.28241749       0.13417974       0.19316800      -0.82258773      -0.04442072
H        7.16689578      -0.52337020       5.79422141        2      -0.01099336       0.09115176       0.18553101      -0.25331527       0.53085172      -0.08150238
H        3.56769348       0.19128019       4.81695804        3       0.00635070       0.03106426      -0.05661317      -0.45246977      -0.59983343       0.03513592
H        5.89857393       0.12906189       3.45590353        4      -0.13662970       0.06346621       0.07412531      -0.11012632      -0.04154631      -0.10463355
H        5.01440552       0.32414379       7.14335938        5       0.11996960      -0.01313411       0.16304592      -0.17231515      -0.44180429      -0.12289539
H       -1.69404175       0.62953437       9.70230157        6      -0.06773580       0.00953624      -0.07983917      -0.29939783      -0.31745824       0.05525963
H        2.37945912       2.25462949       0.31381003        7      -0.10899683       0.12801582      -0.23887821      -0.36571074      -0.41984659      -0.02494920
H       -1.28062218       1.09681356       2.00394183        8       0.10394057       0.17626284      -0.14567642      -0.56132519      -0.12197559      -0.18949789
H       -8.36548938       3.00985768       8.44664932        9       0.01874349       0.07750837      -0.14054412       0.39231974      -0.31946725      -0.01170127
H       -2.54664930       2.78893571       6.82205306       10       0.03048585       0.25775575      -0.04488712      -0.41237307      -0.20837876       1.19028497
H       -6.74143410       3.80633211       3.57290633       11       0.32050258       0.15943882       0.02898771       0.31104100       0.03236894       0.37734908
H       -3.41360540       1.09458053       3.05616295       12       0.34318373      -0.23802476       0.07743259      -0.50853956       0.08234610       0.33156157
H       -6.59466943       1.88031613       7.31880478       13       0.01536700       0.03548286       0.08656134      -0.08189678      -0.12137321       0.20796393
H       -1.92963186       2.16013646       8.81427839       14       0.12531097      -0.02323605      -0.06973072       0.40313622      -0.12264612      -0.32056558
H       -7.86690874       3.29972356       1.71696128       15      -0.08477294      -0.03159823       0.12293884      -0.01433995      -0.41004345      -0.77136505
H       -0.90235494       0.77646749       4.33988643       16      -0.08686013      -0.05814810       0.28342569       0.40912640       0.11714779       0.19912055
H        1.57326849       2.69585855       6.02312947       17       0.00715141      -0.12380894      -0.16254833      -0.29899153      -0.23123047       0.25480533
H       -0.61632287       1.91476308       6.12879306       18      -0.08876027       0.01924318      -0.05101232       0.36619538      -0.32495478       0.18464860
H        0.76835883      -0.91704690       4.28843425       19      -0.15605139       0.01894755       0.06988645      -0.03237651       0.22900321       0.08527838
H        6.70609324       1.62092021       0.91686460       20       0.01929247      -0.19191459       0.26163553       0.76997536       0.63578284      -0.47934955
H       -5.82009073       2.01052706       9.75507010       21       0.30326584       0.03656584       0.14022302      -0.00922835      -0.03741012      -0.50983804
H        5.81093419      -1.87039272       9.61285222       22       0.20657583       0.20659825      -0.02039154       0.37428114      -0.52969015       0.33497900
H       -5.59543444       3.24736138       1.04015515       23      -0.04224137      -0.11354995       0.21265886       0.13948435      -0.29077289      -0.10894196
H        0.42784600       0.48710596       2.10176748       24       0.30049790      -0.13610994      -0.00468406      -0.59484494       0.09816378      -0.19185252
H       -0.53518868      -1.77813116       8.52127416       25       0.00655533       0.08690814       0.10595504       0.65831667      -0.06782690      -0.13440421
H       -2.96285663       2.59157647       5.13270583       26      -0.25300708       0.03340875       0.06572266       0.52106917       0.35914278       0.31286412
H       -6.55716737       3.24215835       5.23786861       27      -0.16752542      -0.02805279      -0.10766356       0.03741285      -0.88641059       0.79594374
H       -5.03685283       1.93128233       3.36334317       28      -0.15021120       0.12582503      -0.10191901       0.62859273      -0.83863676      -0.54655594
H       -4.85344614       1.77016478       7.27072609       29      -0.06649221       0.16884052       0.01181303       1.25072944       0.88673598      -0.39224756
H       -0.86175600       4.56432676       0.03964642       30       0.17846398      -0.19144288      -0.07943180      -0.39176005      -0.36752290      -0.55813318
H        2.38301370       1.54051137      10.51636406       31      -0.19060848       0.01911273       0.25222957       0.14690933      -0.16933629       0.11266027
C       -0.17581896       1.46226534       3.84974165       32      -0.18515632      -0.57459536      -0.22058202       0.27883214      -0.44003582       0.08530974
C        0.22192600      -1.12504879       6.58997347       33      -0.07512308      -0.46550111       0.08488237      -0.55275524      -0.80494541       0.23250613
C       -0.84336857       2.87265023       5.66245298       34       0.04319856       0.29158531      -0.23378186       1.13017893       0.50398988      -0.24388562
C        1.43229076      -0.18392811       4.79404744       35      -0.39846620      -0.16641811      -0.07506723      -1.39263344       0.15176770      -0.49471188
C        6.06713488       0.93900034       1.43224267       36      -0.39497113      -0.32073256      -0.80955179      -1.35844111      -1.50483632      -0.67591566
C       -5.58329451       1.10380715       9.15771830       37      -0.36193232      -0.01752084       0.07000814      -0.01275918       0.62094939      -0.17375559
C       -3.52181740       1.89477509      10.09402552       38       0.16177552      -0.52863243       0.28467030       0.13258183       0.16549650      -2.07575369
C        4.51640583       2.52102927       0.51005712       39       0.36138348      -0.43527635       0.58505068       0.14678907       0.12096243       0.07939684
C       -0.28405292       1.30051714       2.35611375       40       0.19195223      -0.55821552       0.03644883       1.44870162       0.72397578      -0.52213961
C        0.37449211      -1.27541848       8.11748206       41       0.14753579       0.49373612      -0.46888064      -1.73077798       1.54831195      -0.36517057
C       -2.30636825       3.14844781       5.85186586       42      -0.25949145       1.26103967      -0.54787219      -0.30482158      -0.37170047      -1.63763022
C        2.84200268      -0.65064887       4.64737900       43       0.56034536      -0.10141677      -0.32885516       0.85266817       1.99937212      -1.91112077
C        6.24443652       1.02088159       2.92126916       44       0.40080551      -0.06552271       0.31202170       0.30223805       0.54350638       0.34550405
C       -5.72072981       1.29321543       7.63361804       45      -0.11247001      -0.13664515       1.05760889      -1.14459443      -0.53769809       0.96596164
C       -2.05012739       1.65516314       9.77267022       46      -0.47453619       0.69520733      -0.54057395       0.62453151       1.48064923       1.00712633
C        3.08351632       3.00246314       0.64822751       47      -0.01605096       0.11556194       0.01381026       0.20967686       0.51371497       0.80870491
O       -0.35411231       2.78763684       4.26978768       48       0.22350742       0.25056277       0.25663328      -1.10039985       0.01685610       0.20638318
O        1.06167984      -0.11984225       6.16496939       49      -0.16821856      -0.55392448      -0.45958759       0.11151876       0.85498601       0.49101493
O       -1.21357943      -0.78977938       6.25156088       50      -0.33543387      -0.44277458      -0.25066839       0.73390526      -0.39541614       0.41342089
O        1.20697420       1.13024275       4.19342497       51       0.17004613       0.12777103       0.14454291       0.59316033      -1.04898334       0.70126688
O       -3.31489246       4.29054000       0.93958223       52      -0.41183557      -0.17658510       0.40053861      -0.10513968       0.93135214       2.17608833
O        4.33821577       0.06296653       9.62059751       53       0.35992275       0.45633097       0.21462740       0.43338168       0.52332383      -1.13898182
O       -4.17202259       0.83010248       9.41381797       54       0.02043448       0.24051351      -0.02777886      -0.78840244      -0.43916035       0.27765432
O        4.70668948       1.20000077       0.96656717       55       0.53785603      -0.22599732      -0.23686577      -0.20127916       0.02995158       1.29980791
56
Lattice="10.7619164 0.0 0.0 -9.665296305262016 4.732958053065482 0.0 -0.5483100463354086 -2.3664790220718444 10.484177494289693" Properties=species:S:1:pos:R:3:spacegroup_kinds:I:1:momenta:R:3:forces:R:3 spacegroup="P 1" unit_cell=conventional occupancy="_JSON {\"0\": {\"H\": 1}, \"1\": {\"H\": 1}, \"2\": {\"H\": 1}, \"3\": {\"H\": 1}, \"4\": {\"H\": 1}, \"5\": {\"H\": 1}, \"6\": {\"H\": 1}, \"7\": {\"H\": 1}, \"8\": {\"H\": 1}, \"9\": {\"H\": 1}, \"10\": {\"H\": 1}, \"11\": {\"H\": 1}, \"12\": {\"H\": 1}, \"13\": {\"H\": 1}, \"14\": {\"H\": 1}, \"15\": {\"H\": 1}, \"16\": {\"H\": 1}, \"17\": {\"H\": 1}, \"18\": {\"H\": 1}, \"19\": {\"H\": 1}, \"20\": {\"H\": 1}, \"21\": {\"H\": 1}, \"22\": {\"H\": 1}, \"23\": {\"H\": 1}, \"24\": {\"H\": 1}, \"25\": {\"H\": 1}, \"26\": {\"H\": 1}, \"27\": {\"H\": 1}, \"28\": {\"H\": 1}, \"29\": {\"H\": 1}, \"30\": {\"H\": 1}, \"31\": {\"H\": 1}, \"32\": {\"C\": 1}, \"33\": {\"C\": 1}, \"34\": {\"C\": 1}, \"35\": {\"C\": 1}, \"36\": {\"C\": 1}, \"37\": {\"C\": 1}, \"38\": {\"C\": 1}, \"39\": {\"C\": 1}, \"40\": {\"C\": 1}, \"41\": {\"C\": 1}, \"42\": {\"C\": 1}, \"43\": {\"C\": 1}, \"44\": {\"C\": 1}, \"45\": {\"C\": 1}, \"46\": {\"C\": 1}, \"47\": {\"C\": 1}, \"48\": {\"O\": 1}, \"49\": {\"O\": 1}, \"50\": {\"O\": 1}, \"51\": {\"O\": 1}, \"52\": {\"O\": 1}, \"53\": {\"O\": 1}, \"54\": {\"O\": 1}, \"55\": {\"O\": 1}}" energy=-313.85382080078125 free_energy=-313.85382080078125 stress="0.01376141794025898 -0.004879415035247803 -0.005674302112311125 -0.004879415035247803 0.0061639160849153996 0.005476074758917093 -0.005674302112311125 0.005476074758917093 -0.0018128708470612764" pbc="T T T"
H        0.15152045       2.21865817       1.86996610        0       0.18670826      -0.17536451       0.06887297      -0.25463021      -0.83075559       0.05804856
H        0.10920510      -0.19334261       8.62244488        1      -0.00897884       0.26460626      -0.03107077       0.20135947      -1.45994449      -1.01799428
H        7.15516436      -0.39883636       5.76710617        2       0.22383266       0.15937075      -0.34067693       0.18644419       0.19728214      -0.26340494
H        3.55287384       0.14212059       5.10648279        3      -0.16824428      -0.25377425       0.22539371      -0.53552830      -0.32390058      -0.69896352
H        5.71904791       0.28007964       3.48878615        4      -0.14175119       0.06957661       0.07981251      -0.42629433      -0.45673788       0.12704891
H        5.07217446       0.33732691       7.23278690        5      -0.02221064       0.07820010       0.03358511       0.14585051      -0.33882964      -0.34743428
H       -1.86337459       0.61454904       9.70908652        6       0.00209990      -0.06951351       0.02682883       0.35397294       0.27212796       0.03441997
H        2.40409173       2.23500130       0.27412510        7      -0.05904503      -0.08227848      -0.03197376       0.20294958       0.43273631      -0.32657450
H       -1.27779545       1.10993540       2.00836775        8      -0.09536082      -0.13044310       0.02708177      -0.83864802       0.04003218      -0.43664908
H       -8.33962601       3.21420927       8.35225622        9       0.17273773       0.29406236      -0.08361760       0.23368041       0.22765639      -0.09218012
H       -2.54133531       3.01261324       6.85842857       10       0.10491089       0.07367836       0.12017920      -0.11240950      -0.33224392       0.81576598
H       -6.39093368       3.84895146       3.60576966       11       0.14443658       0.00657636      -0.00789864      -0.26306754       0.31059578      -0.29988241
H       -3.37778205       0.94136156       3.24468003       12       0.01522238      -0.07500943       0.19342082      -1.33400345      -0.10755508      -0.76893115
H       -6.68609550       1.78694171       7.51153380       13      -0.08667859      -0.27258682      -0.01170152      -0.20094872      -0.13165314      -0.15521449
H       -1.76453237       2.05976716       8.70170581       14       0.02189850      -0.10309616       0.09738867      -0.31269488       0.19350265       0.31044137
H       -7.95446004       3.02340535       1.79564975       15      -0.04973574      -0.11226864       0.02076843       0.41189510       0.38057786      -1.18562233
H       -0.80018664       0.77039124       4.49092963       16       0.00831361      -0.06072597      -0.00660595       0.00096981       0.17438754      -0.99411547
H        1.44500775       2.50713070       6.17382269       17       0.01224999      -0.28997335      -0.01209778       0.24866287       1.14403760       0.13491473
H       -0.56090755       1.92546783       6.04306262       18       0.00912428       0.02953074      -0.02228974      -0.35387242      -0.16754133       0.13082558
H        0.67939891      -0.89355056       4.27079629       19       0.07644908      -0.05095179      -0.04691376       0.30057678      -0.10529480      -0.07734899
H        6.74714453       1.49845921       0.85340924       20      -0.11245915      -0.08927503      -0.22056995       0.51640427       1.18711722      -0.49470606
H       -5.80988209       2.10952453       9.71365893       21      -0.20491560       0.06817192      -0.10894793       0.02467359      -0.34780309      -0.22419587
H        5.87596095      -1.83571095       9.70363722       22      -0.16165014       0.07076791       0.03590428      -0.15178820      -0.88951546      -0.00086597
H       -5.50015883       3.11440200       1.13784154       23       0.11933063       0.03126357      -0.00442182      -0.11865081       0.35620713      -0.32355005
H        0.36855205       0.33657758       1.99417359       24      -0.04607073      -0.23447406      -0.15432100      -1.04204321       1.71019554       0.43702233
H       -0.32413898      -2.00709556       8.53026265       25       0.20338978      -0.17844345      -0.18322094       0.05246572       0.67889309      -0.27905411
H       -3.08714249       2.74677628       5.19721868       26      -0.01915462       0.07455451      -0.09249892       0.58998239       0.03474068       0.12558076
H       -6.69673479       3.25872603       5.21696370       27      -0.09696541      -0.06688902      -0.04755630       0.17544445      -1.07493198       0.50442213
H       -4.83143349       2.04721359       3.16449863       28       0.33766971       0.12941243       0.00705001       0.39478046      -1.34767723      -0.01897364
H       -4.93754038       1.99042839       7.37634387       29       0.05869056       0.23203817       0.01089297      -0.29873174      -0.47476083      -0.05642630
H       -0.81005390       4.51876372       0.00822835       30      -0.20155784       0.23295184      -0.03457226      -0.26692247      -0.02007085      -0.48483101
H        2.48120415       1.62674269      10.66760473       31       0.30393408      -0.01816133       0.05312292      -0.25146651      -0.60053056       0.38425535
C       -0.17497679       1.41202889       3.81608588       32       0.11041226      -0.26316054      -0.10980211       0.95672995       0.41550303       1.33581185
C        0.16861399      -1.18805866       6.60335744       33      -0.76776853       0.02199957       0.67403908      -0.22194023       0.09040612      -0.69300139
C       -0.81165542       2.89924228       5.59186423       34      -0.05282455       0.32732963      -0.63230751      -1.19237590      -0.34073102       0.60169995
C        1.38527140      -0.18167026       4.74198784       35       0.10270006       0.21879196      -0.68694729       0.81694841      -0.55123699      -0.59415758
C        6.06620576       0.86818200       1.37965233       36       0.53230776      -0.54626154       0.08532734      -0.00822586      -0.53997022       1.85033488
C       -5.59710015       1.15461054       9.17270548       37       0.05871140       1.06856440       0.55336510       0.70454556       0.84736419       1.79725385
C       -3.48648167       1.86752582      10.06803999       38       0.30032595       0.37939337      -0.58623044      -0.95997548       1.52576375      -0.53065926