56
Lattice="10.7619164 0.0 0.0 -9.665296305262016 4.732958053065482 0.0 -0.5483100463354086 -2.3664790220718444 10.484177494289693" Properties=species:S:1:pos:R:3:spacegroup_kinds:I:1:forces:R:3 spacegroup="P 1" unit_cell=conventional occupancy="_JSON {\"0\": {\"H\": 1}, \"1\": {\"H\": 1}, \"2\": {\"H\": 1}, \"3\": {\"H\": 1}, \"4\": {\"H\": 1}, \"5\": {\"H\": 1}, \"6\": {\"H\": 1}, \"7\": {\"H\": 1}, \"8\": {\"H\": 1}, \"9\": {\"H\": 1}, \"10\": {\"H\": 1}, \"11\": {\"H\": 1}, \"12\": {\"H\": 1}, \"13\": {\"H\": 1}, \"14\": {\"H\": 1}, \"15\": {\"H\": 1}, \"16\": {\"H\": 1}, \"17\": {\"H\": 1}, \"18\": {\"H\": 1}, \"19\": {\"H\": 1}, \"20\": {\"H\": 1}, \"21\": {\"H\": 1}, \"22\": {\"H\": 1}, \"23\": {\"H\": 1}, \"24\": {\"H\": 1}, \"25\": {\"H\": 1}, \"26\": {\"H\": 1}, \"27\": {\"H\": 1}, \"28\": {\"H\": 1}, \"29\": {\"H\": 1}, \"30\": {\"H\": 1}, \"31\": {\"H\": 1}, \"32\": {\"C\": 1}, \"33\": {\"C\": 1}, \"34\": {\"C\": 1}, \"35\": {\"C\": 1}, \"36\": {\"C\": 1}, \"37\": {\"C\": 1}, \"38\": {\"C\": 1}, \"39\": {\"C\": 1}, \"40\": {\"C\": 1}, \"41\": {\"C\": 1}, \"42\": {\"C\": 1}, \"43\": {\"C\": 1}, \"44\": {\"C\": 1}, \"45\": {\"C\": 1}, \"46\": {\"C\": 1}, \"47\": {\"C\": 1}, \"48\": {\"O\": 1}, \"49\": {\"O\": 1}, \"50\": {\"O\": 1}, \"51\": {\"O\": 1}, \"52\": {\"O\": 1}, \"53\": {\"O\": 1}, \"54\": {\"O\": 1}, \"55\": {\"O\": 1}}" energy=-315.20623779296875 free_energy=-315.20623779296875 stress="0.0015259833307936788 -0.0007349539082497358 -5.841941970174958e-07 -0.0007349539082497358 -0.0014767504762858152 5.36311226539965e-08 -5.841941970174958e-07 5.36311226539965e-08 0.0016979908104985952" pbc="T T T"
H       -0.01248427       2.27696696       1.83153339        0       0.07122692       0.02707737       0.05251730
H        0.46428407      -0.32702137       8.65264411        1      -0.05205568       0.05564394      -0.05251569
H        7.11696904      -0.62167877       5.76820574        2       0.06071837       0.02959688      -0.06332393
H        3.54843712       0.20514534       4.71597175        3      -0.04159845       0.05318723       0.06330303
H        5.94175252       0.08951207       3.41055536        4      -0.07122615      -0.02707691      -0.05251725
H        4.91667413       0.32702137       7.07362213        5       0.05205747      -0.05563891       0.05251895
H       -1.73601084       0.62167878       9.95806050        6      -0.06071864      -0.02958661       0.06332373
H        2.38083113       2.16133369       0.52611700        7       0.04159794      -0.05318639      -0.06330097
H       -1.38564785       1.18011340       2.11584331        8       0.00912160       0.09641438       0.00989597
H       -8.45014457       2.81694541       8.36833418        9       0.03391317       0.09078149      -0.00994032
H       -2.58250803       2.70418269       6.85836100       10       0.03144339       0.09145387       0.01228216
H       -6.70499477       3.65935988       3.62581649       11       0.01202243       0.09588303      -0.01239188
H       -3.44700030       1.18636563       3.12624543       12      -0.00912164      -0.09641442      -0.00989529
H       -6.59610993       1.91601265       7.35793206       13      -0.03391559      -0.09078115       0.00994131
H       -1.70183007       2.02877537       8.86790524       14      -0.03144048      -0.09144831      -0.01229338
H       -7.79294969       3.44007720       1.61627226       15      -0.01202443      -0.09588410       0.01238975
H       -0.77544238       0.72057867       4.36236141       16      -0.05580289      -0.06497611       0.06553209
H        1.56164860       2.67260202       6.12181608       17       0.02151144      -0.08285743      -0.06550518
H       -0.46393564       1.89516633       6.16016720       18       0.04679094      -0.08891359       0.03981831
H        0.70181139      -0.86845994       4.32401029       19      -0.08095889      -0.05914069      -0.03975114
H        6.70471062       1.64590036       0.87972733       20       0.05580559       0.06498113      -0.06553389
H       -5.84598670       2.06035604       9.60445016       21      -0.02151374       0.08285284       0.06550343
H        5.84489385      -1.89516633       9.56609904       22      -0.04679312       0.08891542      -0.03981544
H       -5.53445954       3.23493897       0.91807845       23       0.08095679       0.05914005       0.03974673
H        0.25131050       0.51347389       1.94957474       24      -0.00851059      -0.01871570      -0.03717769
H       -0.54820374      -1.79480395       8.53460275       25      -0.00033029      -0.02044782       0.03709343
H       -2.80766320       2.46899490       5.11315433       26      -0.04083836      -0.01125157       0.00405195
H       -6.60619587       3.34910738       5.37102316       27       0.03167352      -0.02802473      -0.00411377
H       -5.08395866       1.85300514       3.29251401       28       0.00851465       0.01871291       0.03717761
H       -4.83275446       1.79480396       7.19166349       29       0.00034703       0.02045734      -0.03709833
H       -0.92836486       4.63044218       0.12893441       30       0.04083301       0.01124347      -0.00406398
H        2.32185777       1.38385068      10.35524308       31      -0.03167579       0.02802796       0.00411104
C       -0.12835063       1.44534837       3.84841655       32      -0.01445594       0.09213176      -0.08206707
C        0.20260826      -1.12485611       6.63576095       33       0.05361494       0.07627362       0.08205730
C       -0.77226604       2.84130358       5.69336968       34      -0.06051195       0.10292802       0.03487827
C        1.39483372      -0.15433229       4.79080781       35       0.09947500       0.06571057      -0.03489306
C        6.05761888       0.92113066       1.39367220       36       0.01444708      -0.09213720       0.08206829
C       -5.58356646       1.12485611       9.09050530       37      -0.05360161      -0.07626313      -0.08205900
C       -3.51207206       1.89165448      10.03289656       38       0.06052575      -0.10293407      -0.03489025
C        4.53443453       2.52081132       0.45128094       39      -0.09947044      -0.06571978       0.03490350
C       -0.32593927       1.35886302       2.34265801       40      -0.02487625      -0.04884058       0.03836665
C        0.34202778      -1.28942579       8.14151949       41       0.00090553      -0.05509081      -0.03821138
C       -2.26824862       3.05565688       5.86632716       42       0.02524418      -0.06073654       0.01393137
C        2.83264719      -0.61974062       4.61785033       43      -0.04932038      -0.04330871      -0.01374403
C        6.25520752       1.00761601       2.89943074       44       0.02487136       0.04884332      -0.03836653
C       -5.72298598       1.28942580       7.58474676       45      -0.00092426       0.05507612       0.03821173
C       -2.01608948       1.67730118       9.85993908       46      -0.02525470       0.06073168      -0.01389954
C        3.09662106       2.98621965       0.62423841       47       0.04932585       0.04330590       0.01374378
O       -0.42625656       2.75924355       4.28180099       48       0.00567014      -0.06416622       0.01081752
O        1.04798334      -0.07585512       6.20237650       49      -0.03317403      -0.05508624      -0.01086303
O       -1.17294689      -0.80803189       6.28015861       50      -0.00324825      -0.06212829      -0.01994122
O        1.24638404       1.12493657       4.20401888       51      -0.02462082      -0.05716485       0.01989369
O       -3.30977150       4.34019353       0.96028775       52      -0.00567136       0.06416607      -0.01082119
O        4.33297486       0.07585512       9.52388974       53       0.03316867       0.05508578       0.01086686
O       -4.20801131       0.80803190       9.44610763       54       0.00324817       0.06213030       0.01994687
O        4.68288421       1.24154246       1.03806987       55       0.02462485       0.05716862      -0.01989767
