32
Lattice="6.17176593 0.0 0.0 0.0 8.01859859 0.0 0.0 0.0 13.03281824" Properties=species:S:1:pos:R:3:spacegroup_kinds:I:1:momenta:R:3:forces:R:3 spacegroup="P 1" unit_cell=conventional occupancy="_JSON {\"0\": {\"Li\": 1}, \"1\": {\"Li\": 1}, \"2\": {\"Li\": 1}, \"3\": {\"Li\": 1}, \"4\": {\"Li\": 1}, \"5\": {\"Li\": 1}, \"6\": {\"Li\": 1}, \"7\": {\"Li\": 1}, \"8\": {\"Li\": 1}, \"9\": {\"Li\": 1}, \"10\": {\"Li\": 1}, \"11\": {\"Li\": 1}, \"12\": {\"P\": 1}, \"13\": {\"P\": 1}, \"14\": {\"P\": 1}, \"15\": {\"P\": 1}, \"16\": {\"S\": 1}, \"17\": {\"S\": 1}, \"18\": {\"S\": 1}, \"19\": {\"S\": 1}, \"20\": {\"S\": 1}, \"21\": {\"S\": 1}, \"22\": {\"S\": 1}, \"23\": {\"S\": 1}, \"24\": {\"S\": 1}, \"25\": {\"S\": 1}, \"26\": {\"S\": 1}, \"27\": {\"S\": 1}, \"28\": {\"S\": 1}, \"29\": {\"S\": 1}, \"30\": {\"S\": 1}, \"31\": {\"S\": 1}}" energy=-139.04754638671875 free_energy=-139.04754638671875 stress="-0.0027773899491876364 -0.0008008920704014599 0.0006003815797157586 -0.0008008920704014599 -0.011758673004806042 0.0011993907392024994 0.0006003815797157586 0.0011993907392024994 -0.0050728581845760345" pbc="T T T"
Li       1.89318299       0.02031406       4.38760414        0      -0.06396300      -0.54977062       0.27416178       0.16650212      -0.04222133       0.06444239
Li       3.71989854       7.73137030       8.62061352        1      -0.09279735       0.01204787       0.15846182      -0.24395286      -0.00354695       0.25691584
Li       5.36538513       7.85795504       2.18406311        2       0.66791988       0.49305917       0.92123959       0.01677671      -0.23170999      -0.07048559
Li       0.62173854       0.49592991      10.68061389        3       0.09022703      -0.45591545      -0.51908381       0.36611941      -0.01793082      -0.10251066
Li       3.34406350       4.36455556       8.71991449        4       0.12407764       0.01301073       0.00848364       0.66634357       0.09747054       0.06106790
Li       2.70765646       3.63571147       4.21296383        5      -0.72511837      -0.35115154       0.29510138       0.06325343      -0.04383640      -0.02998952
Li       0.56423351       3.68122896      11.02484158        6      -0.08695672       0.32970313       0.08939184       0.23213479       0.04461922       0.01087989
Li       5.40498498       4.35609644       2.09454549        7       0.82450062       0.48982210       0.34747104       0.24638376      -0.05554394       0.31570035
Li       2.55057642      -0.35167717      -0.09365074        8       0.28750333       0.21922365      -0.16496306       0.20471583       0.13456567       0.11841217
Li      -0.57559700       0.73065714       6.66044442        9      -0.40253381       1.10065943      -0.13297698       0.19105589      -0.25612310      -0.52308559
Li       2.88757337       4.30403528       0.01936092       10       0.52130896       0.05661472      -0.18311511       0.08323862      -0.10744378      -0.41679120
Li       0.35606260       4.81802538       6.67370539       11      -0.61541422       0.59489307      -0.19604547       0.29000115      -0.20391914      -0.05486504
P        0.90195811       2.07480590       1.23076637       12       0.18394584      -0.35512108      -0.97451485       1.70816481      -0.44646263       0.23691215
P        5.25637067       6.09871367      11.82344624       13      -0.78380586      -0.24134660      -0.11940184      -0.10134052      -0.36033931       0.99015784
P        4.06994687       5.91104710       5.28455680       14      -0.35891060      -0.98929985      -0.78169087      -0.81413925      -0.40621787       0.65502238
P        2.18118276       1.90345990       7.60343515       15       0.07499343      -0.00418889       1.32836378      -0.26957443       1.07020652       0.01827436
S        5.11512455       2.06975907       1.39608554       16       1.10823944       1.06699379      -0.23300376      -1.02010167       0.28456065      -0.04907357
S        1.11824226       6.11307349      11.76934855       17       0.49313913      -0.72570460       0.17080465       0.31554848      -0.24939635      -0.20120829
S        1.98930157       5.76059946       4.90644337       18       0.69960061      -0.21214833       0.04333633       0.86146963       0.05014373       0.34682536
S        4.22207388       1.96276816       8.02814956       19       1.37117109      -0.25974693      -1.20955625      -0.97857881       0.45168543       0.28739530
S        1.71914133       2.02964539      12.35234832       20       1.29319824       1.02586823       1.39555827      -0.11200326      -0.10478985      -0.46486765
S        4.40726095       6.02596678       0.73792984       21      -1.20306061      -0.49713701      -0.57246500       0.24856119       0.64606130       0.06484398
S        4.58338550       6.06249816       7.30708643       22      -1.49141905      -1.02839681      -0.50334135      -0.21102041      -0.04045653       0.16202876
S        1.76780921       2.01612590       5.58740441       23       0.21149871       0.09816566      -0.25805801      -0.33226985       0.23041311       0.61508179
S        1.64326388       0.31670474       2.09102380       24       0.16133167      -0.16585827       0.18839518      -0.23180145       0.22051537      -0.34155464
S        4.62916767       7.76038191      10.93751659       25      -0.10358282       0.56683934       0.23323044      -0.86742222       0.78920323      -0.30871826
S        4.72791779       7.63141048       4.49863087       26       0.74263574      -0.09699629       1.16203971       0.18450730       0.56996840      -0.29733649
S        1.23918864       0.20269064       8.14630174       27      -2.01941878      -0.80236870      -0.07222410       0.22596402      -0.39235848       0.76640022
S        4.52536247       4.36958633      11.11360062       28       0.62399025      -0.47574972      -0.32005855      -0.46343511      -0.56960922      -0.65384918
S        1.83473192       3.76266653       1.99015588       29      -1.11189891      -0.77381667       0.84904074      -0.75930369      -0.10063535       0.32523170
S        1.19706128       3.60594965       8.70893067       30      -0.43266870      -0.01167191       0.34839134       0.47776634      -1.11510539      -1.09828401
S        5.03016872       4.16958558       4.80504347       31       0.01226718       1.92948848      -1.57297244      -0.14356352       0.15823312      -0.68297285
