32
Lattice="6.17176593 0.0 0.0 0.0 8.01859859 0.0 0.0 0.0 13.03281824" Properties=species:S:1:pos:R:3:spacegroup_kinds:I:1:momenta:R:3:forces:R:3 spacegroup="P 1" unit_cell=conventional occupancy="_JSON {\"0\": {\"Li\": 1}, \"1\": {\"Li\": 1}, \"2\": {\"Li\": 1}, \"3\": {\"Li\": 1}, \"4\": {\"Li\": 1}, \"5\": {\"Li\": 1}, \"6\": {\"Li\": 1}, \"7\": {\"Li\": 1}, \"8\": {\"Li\": 1}, \"9\": {\"Li\": 1}, \"10\": {\"Li\": 1}, \"11\": {\"Li\": 1}, \"12\": {\"P\": 1}, \"13\": {\"P\": 1}, \"14\": {\"P\": 1}, \"15\": {\"P\": 1}, \"16\": {\"S\": 1}, \"17\": {\"S\": 1}, \"18\": {\"S\": 1}, \"19\": {\"S\": 1}, \"20\": {\"S\": 1}, \"21\": {\"S\": 1}, \"22\": {\"S\": 1}, \"23\": {\"S\": 1}, \"24\": {\"S\": 1}, \"25\": {\"S\": 1}, \"26\": {\"S\": 1}, \"27\": {\"S\": 1}, \"28\": {\"S\": 1}, \"29\": {\"S\": 1}, \"30\": {\"S\": 1}, \"31\": {\"S\": 1}}" energy=-140.31869506835938 free_energy=-140.31869506835938 stress="-0.007170625496655703 2.9580922156213774e-09 1.4358696454053188e-08 2.9580922156213774e-09 -0.008259440772235394 -1.473839716936709e-08 1.4358696454053188e-08 -1.473839716936709e-08 -0.00526631623506546" pbc="T T T"
Li       2.40329652       0.26860172       4.33400832        0       0.00000000       0.00000000       0.00000000      -0.02603553       0.00549068      -0.00432128
Li       3.76846941       7.74999687       8.69880992        1       0.00000000       0.00000000       0.00000000       0.02603661      -0.00549210       0.00432257
Li       5.48917948       7.74999687       2.18240080        2       0.00000000       0.00000000       0.00000000      -0.02603672      -0.00549186       0.00432338
Li       0.68258645       0.26860172      10.85041744        3       0.00000000       0.00000000       0.00000000       0.02603549       0.00549164      -0.00431995
Li       3.76846941       4.27790102       8.69880992        4       0.00000000       0.00000000       0.00000000       0.02603622       0.00549117       0.00432261
Li       2.40329652       3.74069757       4.33400832        5       0.00000000       0.00000000       0.00000000      -0.02603630      -0.00549117      -0.00432187
Li       0.68258645       3.74069757      10.85041744        6       0.00000000       0.00000000       0.00000000       0.02603591      -0.00549162      -0.00432023
Li       5.48917948       4.27790102       2.18240080        7       0.00000000       0.00000000       0.00000000      -0.02603628       0.00549117       0.00432288
Li       3.08588297       0.00000000       0.00000000        8       0.00000000       0.00000000       0.00000000       0.00000008      -0.00000112      -0.00000136
Li       0.00000000       0.00000000       6.51640912        9       0.00000000       0.00000000       0.00000000       0.00000011      -0.00000105       0.00000089
Li       3.08588297       4.00929929       0.00000000       10       0.00000000       0.00000000       0.00000000       0.00000006       0.00000144       0.00000009
Li       0.00000000       4.00929929       6.51640912       11       0.00000000       0.00000000       0.00000000       0.00000083       0.00000142      -0.00000037
P        0.94051010       2.00464965       1.16601784       12       0.00000000       0.00000000       0.00000000      -0.02067246       0.00000018       0.02376014
P        5.23125583       6.01394894      11.86680040       13       0.00000000       0.00000000       0.00000000       0.02066605      -0.00000065      -0.02375923
P        4.02639307       6.01394894       5.35039128       14       0.00000000       0.00000000       0.00000000      -0.02066762       0.00000042      -0.02375711
P        2.14537286       2.00464965       7.68242696       15       0.00000000       0.00000000       0.00000000       0.02066865       0.00000088       0.02375755
S        5.08970823       2.00464965       1.30575389       16       0.00000000       0.00000000       0.00000000      -0.25450513       0.00000119       0.01679120
S        1.08205770       6.01394894      11.72706435       17       0.00000000       0.00000000       0.00000000       0.25450742      -0.00000064      -0.01679251
S        2.00382526       6.01394894       5.21065523       18       0.00000000       0.00000000       0.00000000      -0.25450587      -0.00000112      -0.01679226
S        4.16794067       2.00464965       7.82216301       19       0.00000000       0.00000000       0.00000000       0.25450099       0.00000008       0.01679046
S        1.68132889       2.00464965      12.25955363       20       0.00000000       0.00000000       0.00000000       0.10912227       0.00000067      -0.16719559
S        4.49043704       6.01394894       0.77326461       21       0.00000000       0.00000000       0.00000000      -0.10912034      -0.00000012       0.16718073
S        4.76721186       6.01394894       7.28967373       22       0.00000000       0.00000000       0.00000000       0.10912102       0.00000010       0.16717979
S        1.40455407       2.00464965       5.74314451       23       0.00000000       0.00000000       0.00000000      -0.10911976       0.00000049      -0.16718091
S        1.67233151       0.29287049       2.00524453       24       0.00000000       0.00000000       0.00000000       0.13957880      -0.21272597       0.08709877
S        4.49943442       7.72572810      11.02757371       25       0.00000000       0.00000000       0.00000000      -0.13957533       0.21272478      -0.08709235
S        4.75821447       7.72572810       4.51116459       26       0.00000000       0.00000000       0.00000000       0.13957556       0.21272407      -0.08709149
S        1.41355146       0.29287049       8.52165365       27       0.00000000       0.00000000       0.00000000      -0.13957603      -0.21272027       0.08709155
S        4.49943442       4.30216979      11.02757371       28       0.00000000       0.00000000       0.00000000      -0.13957749      -0.21272530      -0.08709431
S        1.67233151       3.71642880       2.00524453       29       0.00000000       0.00000000       0.00000000       0.13957791       0.21272622       0.08710022
S        1.41355146       3.71642880       8.52165365       30       0.00000000       0.00000000       0.00000000      -0.13957569       0.21272129       0.08709145
S        4.75821447       4.30216979       4.51116459       31       0.00000000       0.00000000       0.00000000       0.13957641      -0.21272483      -0.08709356
32
Lattice="6.17176593 0.0 0.0 0.0 8.01859859 0.0 0.0 0.0 13.03281824" Properties=species:S:1:pos:R:3:spacegroup_kinds:I:1:momenta:R:3:forces:R:3 spacegroup="P 1" unit_cell=conventional occupancy="_JSON {\"0\": {\"Li\": 1}, \"1\": {\"Li\": 1}, \"2\": {\"Li\": 1}, \"3\": {\"Li\": 1}, \"4\": {\"Li\": 1}, \"5\": {\"Li\": 1}, \"6\": {\"Li\": 1}, \"7\": {\"Li\": 1}, \"8\": {\"Li\": 1}, \"9\": {\"Li\": 1}, \"10\": {\"Li\": 1}, \"11\": {\"Li\": 1}, \"12\": {\"P\": 1}, \"13\": {\"P\": 1}, \"14\": {\"P\": 1}, \"15\": {\"P\": 1}, \"16\": {\"S\": 1}, \"17\": {\"S\": 1}, \"18\": {\"S\": 1}, \"19\": {\"S\": 1}, \"20\": {\"S\": 1}, \"21\": {\"S\": 1}, \"22\": {\"S\": 1}, \"23\": {\"S\": 1}, \"24\": {\"S\": 1}, \"25\": {\"S\": 1}, \"26\": {\"S\": 1}, \"27\": {\"S\": 1}, \"28\": {\"S\": 1}, \"29\": {\"S\": 1}, \"30\": {\"S\": 1}, \"31\": {\"S\": 1}}" energy=-139.9605255126953 free_energy=-139.9605255126953 stress="-0.0007354700355790555 0.001575344242155552 -0.00023290129320230335 0.001575344242155552 -0.0027729880530387163 0.0006643168162554502 -0.00023290129320230335 0.0006643168162554502 -0.0017160822171717882" pbc="T T T"
Li       2.43034324       0.22585575       4.45679087        0       0.24048556       0.22791718       0.01968679      -0.03584503      -0.04263967      -0.15075269
Li       3.96270342       7.70281194       8.58097150        1       0.28434391      -0.11835764       0.23103626      -0.37780121       0.18983088       0.32173824
Li       5.38213447       7.74437309       2.06655753        2      -0.27939257       0.31621084      -0.51167879       0.10129683      -0.07473538       0.17892663
Li       0.59730490       0.31038129      10.87608061        3      -0.44599259       0.07761316       0.07357914       0.04188547       0.06607015      -0.06095465
Li       3.73605436       4.20313356       8.65826912        4      -0.24258187      -0.08386127      -0.34808035       0.14650387       0.28942508      -0.10378845
Li       2.36465550       3.61920556       4.25771222        5       0.17493064       0.01713476       0.05688113       0.10562519       0.16258281       0.10221456
Li       0.61852536       3.80195181      10.94978030        6       0.11414839      -0.21402400      -0.28066245       0.10848426      -0.03375588      -0.17485423
Li       5.49219683       4.40144313       2.08726934        7       0.07017706      -0.14655344      -0.25403366       0.13782047      -0.27897146       0.21374708
Li       2.91529739      -0.13898788      -0.02233818        8      -0.37102118      -0.24006006      -0.16459982      -0.10138921       0.02290496      -0.04484587
Li      -0.16139812       0.19270465       6.67630887        9      -0.45662504       0.93846130       0.60838607      -0.02167041       0.01900884      -0.16673025
Li       3.06884852       4.03553346      -0.03873064       10      -0.06815457      -0.00978485      -0.21256298       0.01224826      -0.16658297      -0.21911493
Li       0.07499477       4.15911581       6.45428507       11       0.24853549       0.13110104       0.05674160       0.25093055      -0.10050388       0.08496237
P        0.93601228       2.05334533       1.18544735       12      -0.51294854      -0.28899207       0.45015766       0.66014421      -0.51652724       0.10848029
P        5.24589252       6.03191638      11.83749412       13       0.78938416       1.46950717      -0.36778137      -0.31915963       0.09455664       0.02305426
P        4.10553389       5.97585301       5.31632756       14       1.81789691      -0.65811033      -0.85397977      -0.51657391      -0.33519816      -0.01569754
P        2.08767554       1.98052864       7.73607712       15      -0.53415243      -0.90029731       0.83865181       0.33713412      -0.13644955      -0.05861499
S        5.11769652       1.98978304       1.38907931       16       0.61061548       0.13845450       1.16176319      -0.55328202       0.42203194      -0.00711801
S        1.15041515       6.12431178      11.70628115       17      -0.88890211      -0.18128904      -0.16360413      -0.70772022      -0.39482692       0.09969102
S        2.04771181       5.98095213       5.21273194       18       0.10049119      -0.46984436      -0.33406339       0.31401131      -0.23711818      -0.00709033
S        4.14071280       2.02419168       7.84920017       19      -0.45192176       0.66402085       0.21646466       0.06268959      -0.25431353      -0.06134868
S        1.57970009       2.00036421      12.22030410       20      -0.29157162      -0.42683057      -0.79314618       0.23042378       0.12742183       0.33498907
S        4.34674457       5.92350903       0.74926825       21      -0.39280606      -0.18913245       0.06230497       0.51413870       0.41935945      -0.47005349
S        4.86236410       6.02525803       7.25573378       22       1.25882213      -0.11678213       0.90943518       0.01741746      -0.32790473       0.17047492
S        1.39079428       1.92363521       5.76870002       23       0.08252403      -0.84053390      -0.13340197      -0.14283225       0.22610006       0.10085606
S        1.66436364       0.28875999       2.07036818       24      -0.49401074       0.23172405       0.31737938      -0.04877868       0.51311105      -0.26590940
S        4.46961612       7.76033747      11.02753659       25      -0.68878786      -0.36275683      -0.07717886      -0.02580865      -0.19125520       0.10519651
S        4.80028315       7.70927323       4.53544876       26       0.41075440      -0.16871493       0.58091833       0.21248350       0.27714527      -0.37857443
S        1.39419317       0.26329260       8.61112278       27       0.25632138      -0.04184869       0.21189422       0.10130217       0.01575393      -0.11257432
S        4.45083992       4.33387402      10.92738014       28      -0.61775002       1.07683330      -0.29559192       0.37433878       0.25607577       0.38780093
S        1.76310294       3.80445264       1.93517171       29       0.41885078       0.09955177      -1.02426222      -0.39247784      -0.33096647       0.05346805
S        1.40951351       3.73018219       8.54263433       30       0.05493894      -0.02283836       0.41452218      -0.29208773       0.05124184       0.05100356
S        4.83805741       4.22546391       4.48685417       31      -0.19660156       0.09208226      -0.39517472      -0.19345200       0.26912892      -0.03858130
32
Lattice="6.17176593 0.0 0.0 0.0 8.01859859 0.0 0.0 0.0 13.03281824" Properties=species:S:1:pos:R:3:spacegroup_kinds:I:1:momenta:R:3:forces:R:3 spacegroup="P 1" unit_cell=conventional occupancy="_JSON {\"0\": {\"Li\": 1}, \"1\": {\"Li\": 1}, \"2\": {\"Li\": 1}, \"3\": {\"Li\": 1}, \"4\": {\"Li\": 1}, \"5\": {\"Li\": 1}, \"6\": {\"Li\": 1}, \"7\": {\"Li\": 1}, \"8\": {\"Li\": 1}, \"9\": {\"Li\": 1}, \"10\": {\"Li\": 1}, \"11\": {\"Li\": 1}, \"12\": {\"P\": 1}, \"13\": {\"P\": 1}, \"14\": {\"P\": 1}, \"15\": {\"P\": 1}, \"16\": {\"S\": 1}, \"17\": {\"S\": 1}, \"18\": {\"S\": 1}, \"19\": {\"S\": 1}, \"20\": {\"S\": 1}, \"21\": {\"S\": 1}, \"22\": {\"S\": 1}, \"23\": {\"S\": 1}, \"24\": {\"S\": 1}, \"25\": {\"S\": 1}, \"26\": {\"S\": 1}, \"27\": {\"S\": 1}, \"28\": {\"S\": 1}, \"29\": {\"S\": 1}, \"30\": {\"S\": 1}, \"31\": {\"S\": 1}}" energy=-139.54769897460938 free_energy=-139.54769897460938 stress="-0.0022488427348434925 -0.0013154419139027596 0.0023024845868349075 -0.0013154419139027596 -0.009513182565569878 0.0009590326226316392 0.0023024845868349075 0.0009590326226316392 -0.011561078019440174" pbc="T T T"
Li       2.47471438       0.04416507       4.60235430        0      -0.00841377       0.13114050      -0.28078621      -0.09010482       0.55124664      -0.32827419
Li       3.57818224       7.81707134       8.80366479        1      -0.22844016      -0.01964127      -0.28685429       0.43299955      -0.16827540      -0.20485832
Li       5.05783980       7.86528843       2.32804794        2      -0.24141333      -0.05838557       1.04619961       0.26364082      -0.06247289      -0.40399227
Li       0.46257618       0.37998626      10.66627310        3       0.07040163      -0.16441964      -0.50393547      -0.01002228      -0.04970391       0.54834640
Li       3.88230589       4.55494168       8.62566848        4       0.11945741       0.42722735       0.26699202      -0.42782903      -0.69011074       0.22478937
Li       2.36595282       3.55014579       4.32696684        5       0.49718112      -0.08671014       0.05063052       0.24615967       0.13529202      -0.17662519
Li       0.64211557       3.69670860      10.81723004        6      -0.34794579       0.19432935       0.11545736       0.07723349       0.10552716      -0.04354874
Li       5.40053141       4.25504080       2.09894249        7      -0.06275570       0.77756296      -0.02217150       0.15977347       0.24174510       0.08889689
Li       2.69286021      -0.23226769      -0.12577189        8      -0.18539954      -0.47099756      -0.03007541      -0.01407083      -0.07052977      -0.05322566
Li      -0.58295926       0.62747924       6.80451275        9      -0.19626524       0.17091276      -0.33898662       0.28857252      -0.40015650      -0.22070494
Li       3.01717883       3.99995347      -0.21964670       10      -0.47319152       0.00252872      -0.14143745       0.00402399      -0.03933445       0.14776345
Li       0.50639732       4.33324972       6.33565893       11       0.66579721       0.45745861      -0.64458953      -0.18396282       0.09441260       0.06392790
P        0.92600040       2.01887425       1.13938146       12      -1.63157887       1.04280899       0.35555840      -0.49824846      -1.05939507       0.89892942
P        5.19480247       6.08531537      11.86130264       13      -0.57190207       1.25752798      -0.38255413       0.30414647       0.37893841      -0.91424644
P        4.18993589       5.95566144       5.35229387       14       0.03763244       0.06735231      -0.00019020      -0.08598521      -0.88073349       0.34986752
P        2.04952688       1.96036055       7.69156718       15       0.25725008      -1.14925360      -0.42854061       0.72854328       0.27648729       0.60101175
S        5.04074534       2.03132281       1.49106678       16      -0.70244184      -0.36286699      -0.34208088       0.46668500       0.09782308      -0.50972259
S        1.05962275       6.04809108      11.68585172       17      -0.33157339      -0.23188378      -0.18849014       0.15856560       0.16651240      -0.01664615
S        2.13585563       5.92002888       5.21081844       18       0.33876498       0.08733515       0.49806993      -0.01692083      -0.35809928       0.02691822
S        4.11763174       2.06310406       7.84393945       19      -0.61958926       0.11133927       0.48910477      -0.47060704      -0.00279690       0.21252072
S        1.54957527       1.94596904      12.22087594       20       0.97998117       0.08160600       0.24893151       0.07974354       0.07315513      -0.52676684
S        4.44672245       6.07858280       0.69577830       21       0.55355925       0.62351561       0.94779847      -0.34035519      -0.23030774       0.87242246
S        4.91483046       5.99150194       7.29604639       22       0.21262272      -0.37895338       0.60502631       0.15010300       0.58987457      -0.25257778
S        1.34728582       1.87025722       5.77594679       23       0.21794257       0.33342387       0.71163262      -0.14144699       0.11189388      -0.39798433
S        1.72735482       0.33254164       2.04512574       24       0.82200687      -1.19524596      -0.53827932      -0.34312439      -0.00989436      -0.08074838
S        4.39115754       7.77640018      10.97573257       25      -0.54376892       0.57164921       0.35528143       0.03393796      -0.06786326       0.40202045
S        4.93784216       7.67127281       4.59661164       26      -0.12256421      -0.14219324       0.32656459      -0.09391695       0.43265530      -0.01901460
S        1.35919945       0.26415475       8.62107532       27      -0.09782282       0.63975920      -0.63926954      -0.27900261       0.11271663      -0.67969942
S        4.55299593       4.39029753      10.92381653       28       0.68992572      -0.98580487       0.06225675      -0.42634159      -0.40905952       0.06763845
S        1.77006340       3.65607321       1.92552935       29      -0.69267452      -1.17596550      -0.38304317       0.12044239       0.97940671       0.24872404
S        1.42247718       3.73689564       8.50850852       30       0.87787751      -0.21370107      -1.27694598      -0.06024506      -0.05555016       0.00027042
S        4.87993292       4.21462487       4.48819308       31       0.71734019      -0.34145530       0.34872618      -0.03238631       0.20659620       0.07458854
32
Lattice="6.17176593 0.0 0.0 0.0 8.01859859 0.0 0.0 0.0 13.03281824" Properties=species:S:1:pos:R:3:spacegroup_kinds:I:1:momenta:R:3:forces:R:3 spacegroup="P 1" unit_cell=conventional occupancy="_JSON {\"0\": {\"Li\": 1}, \"1\": {\"Li\": 1}, \"2\": {\"Li\": 1}, \"3\": {\"Li\": 1}, \"4\": {\"Li\": 1}, \"5\": {\"Li\": 1}, \"6\": {\"Li\": 1}, \"7\": {\"Li\": 1}, \"8\": {\"Li\": 1}, \"9\": {\"Li\": 1}, \"10\": {\"Li\": 1}, \"11\": {\"Li\": 1}, \"12\": {\"P\": 1}, \"13\": {\"P\": 1}, \"14\": {\"P\": 1}, \"15\": {\"P\": 1}, \"16\": {\"S\": 1}, \"17\": {\"S\": 1}, \"18\": {\"S\": 1}, \"19\": {\"S\": 1}, \"20\": {\"S\": 1}, \"21\": {\"S\": 1}, \"22\": {\"S\": 1}, \"23\": {\"S\": 1}, \"24\": {\"S\": 1}, \"25\": {\"S\": 1}, \"26\": {\"S\": 1}, \"27\": {\"S\": 1}, \"28\": {\"S\": 1}, \"29\": {\"S\": 1}, \"30\": {\"S\": 1}, \"31\": {\"S\": 1}}" energy=-139.50637817382812 free_energy=-139.50637817382812 stress="0.0007737107807770371 -0.001955801621079445 -0.003912174608558416 -0.001955801621079445 -0.0025917000602930784 -0.0018617520108819008 -0.003912174608558416 -0.0018617520108819008 -0.0042342208325862885" pbc="T T T"
Li       2.40529205       0.28339754       4.27692915        0      -0.06356156      -0.17620792       0.02499945       0.17538586      -0.24909005       0.34226245
Li       3.94509727       7.66688180       8.59546136        1       0.09471722      -0.25989280       0.29386136      -0.49282658       0.28917772       0.40949804
Li       5.39846796       7.85842524       2.15158056        2       0.74730416       0.46551925      -0.33926785      -0.12913583       0.11645686       0.17322028
Li       0.63084586       0.33583532      10.91244793        3       0.68118285      -0.31758193       0.11159123      -0.19041982      -0.20528476      -0.40496719
Li       3.62441412       4.17208381       8.80704876        4       0.39934239      -0.12094185       0.25353145       0.45163420       0.22458065      -0.13852784
Li       2.67653413       3.65664999       4.08359563        5       0.00962817      -0.04404490      -0.20964076      -0.19614750      -0.03885194       0.12264587
Li       0.69234754       3.76174998      10.64528007        6       0.22705090      -0.38128099       0.29471646      -0.07502843      -0.12566470       0.29369736
Li       5.59776341       4.45879428       2.25665851        7       0.52718299      -0.09861952       0.71118004      -0.25079718      -0.06955796      -0.18170409
Li       2.57073576      -0.44148617      -0.12796277        8       0.17343366      -0.07273318       0.02949423       0.17585313       0.21062458      -0.09286839
Li      -0.22557621       0.33519933       6.63588736        9       0.46511917      -0.75322289       0.27806573      -0.17251293      -0.03356067      -0.15994658
Li       2.74489017       4.36400894      -0.17899461       10      -0.83694568       0.28143425       0.49723694       0.08728275      -0.14804226       0.03875552
Li       0.36231131       4.17991449       6.35794890       11       0.06525802      -0.45795993       0.67326346       0.04680637       0.15580030      -0.16454652
P        0.92188812       1.91537839       1.19165798       12       1.82190172       0.81488251      -0.39621436      -1.37693667       1.70293832      -0.81454360
P        5.18139784       6.11038480      11.85048666       13      -0.16066958       0.10879023       0.85053314      -0.17428891       0.65181810       0.05624121
P        4.17527155       5.86128615       5.42210522       14       0.53355563       1.10252595       0.16381392       0.39125273       0.70292592      -0.55498970
P        2.10216003       2.00559441       7.69661463       15      -0.22072427      -0.50681325      -0.83128554       0.39792860      -1.54810691      -0.36836460
S        4.98020342       2.14500082       1.44710797       16       0.79453735       0.85662316      -0.36097551       1.35873473      -0.47383711      -0.17439784
S        1.07188855       6.02185010      11.62504963       17       0.12096458       0.02780194      -0.50403027       0.04049756       0.13470545       0.09913846
S        2.16893402       5.87771073       5.24613805       18       0.36979922      -1.49577819      -0.27728184      -0.34882551      -0.19216782      -0.16728204
S        4.17946960       1.95000734       7.92150317       19       1.49124453      -0.64589131       0.75797553      -0.73010695       0.23221338      -0.04466848
S        1.61490397       1.90167157      12.21318493       20      -1.10867542       0.74991429       0.67920459      -0.04419324       0.28574911       0.71719849
S        4.42352141       6.18205286       0.77445447       21      -0.55525963       0.81787999      -0.47016173       0.14988989      -0.36339140      -0.13446145
S        4.90674646       6.04601308       7.33858860       22      -0.12879570       0.63422624       0.37847295       0.19920693      -0.78692871       0.05682795
S        1.38256176       1.95085398       5.72444893       23       0.90247693       1.39297114      -0.72869989       0.38462019       0.27330908       0.00402570
S        1.66334786       0.27303081       2.04529795       24      -0.90019562      -0.64945475       0.10800555       0.11034364      -0.66016334       0.16965953
S        4.42890001       7.85946390      11.02254280       25      -0.00842273       0.19540241      -0.50483182       0.19989534      -0.63304085       0.11478116
S        4.82146656       7.68174943       4.56702895       26      -1.65480856      -0.41408277      -1.56120583      -0.10001965      -0.50778008      -0.12258439
S        1.25424473       0.28115006       8.52146352       27      -0.14895616      -0.90200100      -0.35513794       0.63653600       0.51489007       0.03647843
S        4.53683489       4.36615096      11.04452165       28      -0.65790997       0.45811144       1.08475038      -0.37895942      -0.30189049      -0.05411936
S        1.63668853       3.75148233       1.88554168       29      -1.08203422      -0.10974130      -0.84350233       0.39856204      -0.28913948       0.15752329
S        1.36461113       3.73786236       8.40303319       30      -1.66467913      -0.02735892      -0.22295866      -0.13566642       0.54226482       0.51880908
S        4.99935457       4.14527475       4.55299328       31      -0.23306133      -0.47247539       0.41449789      -0.40856495       0.58904433       0.26720956
32
Lattice="6.17176593 0.0 0.0 0.0 8.01859859 0.0 0.0 0.0 13.03281824" Properties=species:S:1:pos:R:3:spacegroup_kinds:I:1:momenta:R:3:forces:R:3 spacegroup="P 1" unit_cell=conventional occupancy="_JSON {\"0\": {\"Li\": 1}, \"1\": {\"Li\": 1}, \"2\": {\"Li\": 1}, \"3\": {\"Li\": 1}, \"4\": {\"Li\": 1}, \"5\": {\"Li\": 1}, \"6\": {\"Li\": 1}, \"7\": {\"Li\": 1}, \"8\": {\"Li\": 1}, \"9\": {\"Li\": 1}, \"10\": {\"Li\": 1}, \"11\": {\"Li\": 1}, \"12\": {\"P\": 1}, \"13\": {\"P\": 1}, \"14\": {\"P\": 1}, \"15\": {\"P\": 1}, \"16\": {\"S\": 1}, \"17\": {\"S\": 1}, \"18\": {\"S\": 1}, \"19\": {\"S\": 1}, \"20\": {\"S\": 1}, \"21\": {\"S\": 1}, \"22\": {\"S\": 1}, \"23\": {\"S\": 1}, \"24\": {\"S\": 1}, \"25\": {\"S\": 1}, \"26\": {\"S\": 1}, \"27\": {\"S\": 1}, \"28\": {\"S\": 1}, \"29\": {\"S\": 1}, \"30\": {\"S\": 1}, \"31\": {\"S\": 1}}" energy=-139.33612060546875 free_energy=-139.33612060546875 stress="-0.012800415977835655 0.0036230955738574266 0.001447038259357214 0.0036230955738574266 -0.010772613808512688 -0.004369126167148352 0.001447038259357214 -0.004369126167148352 -0.004358991049230099" pbc="T T T"
Li       2.24234998      -0.02244333       4.51623137        0      -0.75167706       0.25876619       0.11828835       0.04955683       0.33428168      -0.24673787
Li       3.47843716       7.74790012       8.84325541        1      -0.31764230       0.27347107      -0.40709274       0.71126878      -0.27297860      -0.26244146
Li       5.44330448       7.78471728       2.23565580        2      -0.55590856      -0.82512647      -0.08558108       0.07710068       0.15087435      -0.33576185
Li       0.70507429       0.34463537      10.57260246        3       0.14565562       0.60342096       0.13305209      -0.18595006      -0.06962678       0.66032529
Li       3.78666750       4.27597756       8.81528662        4      -0.64465734       0.22973618      -0.32694194      -0.05040549       0.03708728      -0.21674262
Li       2.66957118       3.55009232       4.07042477        5       0.40686179       0.20926181      -0.19768857       0.11433461       0.03047315       0.05158683
Li       0.46131721       3.61591047      10.86156749        6      -0.10396566      -0.14891908       0.21004667       0.26215097       0.05195456      -0.04508869
Li       5.33764700       4.31079304       2.44339701        7      -0.48740897      -0.21718119      -0.39626603       0.21177942      -0.00121600      -0.30729738
Li       2.54898008      -0.38143821      -0.04078602        8      -0.17830434      -0.01629898       0.17742719       0.12150817       0.06900252      -0.02408747
Li      -0.27125865       0.07830045       6.53264208        9      -0.28871996       0.31860602       0.03476041      -0.00119759       0.34546161       0.07524595
Li       2.62010259       4.30874239      -0.28825650       10       0.77075613      -0.18873370      -0.40521102       0.08206373      -0.01256253       0.10052823
Li       0.55446943       4.31322272       6.27110265       11       0.22954624       0.71372054       0.72367470       0.17572653      -0.01254801       0.34270120
P        0.91694579       2.03400459       1.16970775       12       2.22362257       0.23278495       0.73908946       0.50581300       0.07235426       0.63862717
P        5.14494030       6.14708130      11.88932752       13       0.72473661      -0.97459391       0.34574525       1.25922978      -0.47790349       0.11315794
P        4.13153011       5.91673104       5.41729972       14      -2.06345506      -0.08437668       0.54938687       0.05657727       0.89621139      -0.09685124
P        2.14454383       1.99244196       7.60410251       15       0.17951976       2.32529077      -0.25954459      -0.12248565      -0.90659827      -0.29408136
S        5.10823882       2.09822133       1.39295736       16      -2.04703109      -0.75557633       0.27225795      -0.63796598       0.01741908       0.02481147
S        1.12997866       6.09708033      11.67453341       17       0.40410011      -0.02141536       0.96162306      -0.88563061      -0.15077478      -0.08384697
S        2.15737256       5.71859175       5.06012421       18      -0.40903295       0.07035091      -1.31952857      -0.76759928       0.22479226       0.19174902