32
Lattice="6.17176593 0.0 0.0 0.0 8.01859859 0.0 0.0 0.0 13.03281824" Properties=species:S:1:pos:R:3:spacegroup_kinds:I:1:forces:R:3 spacegroup="P 1" unit_cell=conventional occupancy="_JSON {\"0\": {\"Li\": 1}, \"1\": {\"Li\": 1}, \"2\": {\"Li\": 1}, \"3\": {\"Li\": 1}, \"4\": {\"Li\": 1}, \"5\": {\"Li\": 1}, \"6\": {\"Li\": 1}, \"7\": {\"Li\": 1}, \"8\": {\"Li\": 1}, \"9\": {\"Li\": 1}, \"10\": {\"Li\": 1}, \"11\": {\"Li\": 1}, \"12\": {\"P\": 1}, \"13\": {\"P\": 1}, \"14\": {\"P\": 1}, \"15\": {\"P\": 1}, \"16\": {\"S\": 1}, \"17\": {\"S\": 1}, \"18\": {\"S\": 1}, \"19\": {\"S\": 1}, \"20\": {\"S\": 1}, \"21\": {\"S\": 1}, \"22\": {\"S\": 1}, \"23\": {\"S\": 1}, \"24\": {\"S\": 1}, \"25\": {\"S\": 1}, \"26\": {\"S\": 1}, \"27\": {\"S\": 1}, \"28\": {\"S\": 1}, \"29\": {\"S\": 1}, \"30\": {\"S\": 1}, \"31\": {\"S\": 1}}" energy=-140.31869506835938 free_energy=-140.31869506835938 stress="-0.007170625496655703 2.9580922156213774e-09 1.4358696454053188e-08 2.9580922156213774e-09 -0.008259440772235394 -1.473839716936709e-08 1.4358696454053188e-08 -1.473839716936709e-08 -0.00526631623506546" pbc="T T T"
Li       2.40329652       0.26860172       4.33400832        0      -0.02603553       0.00549068      -0.00432128
Li       3.76846941       7.74999687       8.69880992        1       0.02603661      -0.00549210       0.00432257
Li       5.48917948       7.74999687       2.18240080        2      -0.02603672      -0.00549186       0.00432338
Li       0.68258645       0.26860172      10.85041744        3       0.02603549       0.00549164      -0.00431995
Li       3.76846941       4.27790102       8.69880992        4       0.02603622       0.00549117       0.00432261
Li       2.40329652       3.74069757       4.33400832        5      -0.02603630      -0.00549117      -0.00432187
Li       0.68258645       3.74069757      10.85041744        6       0.02603591      -0.00549162      -0.00432023
Li       5.48917948       4.27790102       2.18240080        7      -0.02603628       0.00549117       0.00432288
Li       3.08588297       0.00000000       0.00000000        8       0.00000008      -0.00000112      -0.00000136
Li       0.00000000       0.00000000       6.51640912        9       0.00000011      -0.00000105       0.00000089
Li       3.08588297       4.00929929       0.00000000       10       0.00000006       0.00000144       0.00000009
Li       0.00000000       4.00929929       6.51640912       11       0.00000083       0.00000142      -0.00000037
P        0.94051010       2.00464965       1.16601784       12      -0.02067246       0.00000018       0.02376014
P        5.23125583       6.01394894      11.86680040       13       0.02066605      -0.00000065      -0.02375923
P        4.02639307       6.01394894       5.35039128       14      -0.02066762       0.00000042      -0.02375711
P        2.14537286       2.00464965       7.68242696       15       0.02066865       0.00000088       0.02375755
S        5.08970823       2.00464965       1.30575389       16      -0.25450513       0.00000119       0.01679120
S        1.08205770       6.01394894      11.72706435       17       0.25450742      -0.00000064      -0.01679251
S        2.00382526       6.01394894       5.21065523       18      -0.25450587      -0.00000112      -0.01679226
S        4.16794067       2.00464965       7.82216301       19       0.25450099       0.00000008       0.01679046
S        1.68132889       2.00464965      12.25955363       20       0.10912227       0.00000067      -0.16719559
S        4.49043704       6.01394894       0.77326461       21      -0.10912034      -0.00000012       0.16718073
S        4.76721186       6.01394894       7.28967373       22       0.10912102       0.00000010       0.16717979
S        1.40455407       2.00464965       5.74314451       23      -0.10911976       0.00000049      -0.16718091
S        1.67233151       0.29287049       2.00524453       24       0.13957880      -0.21272597       0.08709877
S        4.49943442       7.72572810      11.02757371       25      -0.13957533       0.21272478      -0.08709235
S        4.75821447       7.72572810       4.51116459       26       0.13957556       0.21272407      -0.08709149
S        1.41355146       0.29287049       8.52165365       27      -0.13957603      -0.21272027       0.08709155
S        4.49943442       4.30216979      11.02757371       28      -0.13957749      -0.21272530      -0.08709431
S        1.67233151       3.71642880       2.00524453       29       0.13957791       0.21272622       0.08710022
S        1.41355146       3.71642880       8.52165365       30      -0.13957569       0.21272129       0.08709145
S        4.75821447       4.30216979       4.51116459       31       0.13957641      -0.21272483      -0.08709356
