4
Lattice="3.128588 0.0 0.0 -1.5642939988088433 2.709436998432005 0.0 0.0 0.0 5.016955" Properties=species:S:1:pos:R:3:spacegroup_kinds:I:1:momenta:R:3:forces:R:3 spacegroup="P 1" unit_cell=conventional occupancy="_JSON {\"0\": {\"Al\": 1}, \"1\": {\"Al\": 1}, \"2\": {\"N\": 1}, \"3\": {\"N\": 1}}" energy=-29.623743057250977 free_energy=-29.623743057250977 stress="0.004300205036997795 -0.008672626689076424 0.002881862223148346 -0.008672626689076424 -0.006943735294044018 -0.004434594418853521 0.002881862223148346 -0.004434594418853521 -0.014839176088571548" pbc="T T T"
Al       1.54321202       0.89379622       2.53645983        0      -0.00705477      -0.41529168       0.79445024      -0.25249845       0.39303023      -0.87834543
Al       0.03580901       1.79893950       4.98957807        1       0.09337960      -0.29525169      -0.61191979      -0.16601071       0.14058182       0.62745219
N        1.59619755       0.90645094       4.40111850        2      -0.02189844       1.09350698       0.27120839      -0.08899814      -0.09593788       0.34911054
N       -0.05911255       1.83464210       1.91219259        3      -0.06442643      -0.38296354      -0.45373879       0.50750738      -0.43767425      -0.09821741
