4
Lattice="3.128588 0.0 0.0 -1.5642939988088433 2.709436998432005 0.0 0.0 0.0 5.016955" Properties=species:S:1:pos:R:3:spacegroup_kinds:I:1:momenta:R:3:forces:R:3 spacegroup="P 1" unit_cell=conventional occupancy="_JSON {\"0\": {\"Al\": 1}, \"1\": {\"Al\": 1}, \"2\": {\"N\": 1}, \"3\": {\"N\": 1}}" energy=-29.673717498779297 free_energy=-29.673717498779297 stress="-0.0022254835348576307 -1.4418246792047285e-06 -2.9373437016033677e-08 -1.4418246792047285e-06 -0.0022273059003055096 -3.374452361981639e-08 -2.9373437016033677e-08 -3.374452361981639e-08 -0.005453634541481733" pbc="T T T"
Al       1.56429556       0.90314476       2.50490041        0       0.68448204       0.53670047       0.91071479      -0.00003367       0.00002049       0.00553178
Al      -0.00000156       1.80629224       5.01337791        1       0.31075784       0.39520501      -1.87833745       0.00003434      -0.00001925       0.00552480
N        1.56429556       0.90314476       4.41849749        2      -0.23293981      -0.79739853      -0.40745139      -0.00003627       0.00001976      -0.00552994
N       -0.00000156       1.80629224       1.91001999        3      -0.76230006      -0.13450696       1.37507406       0.00003550      -0.00002093      -0.00552659
4
Lattice="3.128588 0.0 0.0 -1.5642939988088433 2.709436998432005 0.0 0.0 0.0 5.016955" Properties=species:S:1:pos:R:3:spacegroup_kinds:I:1:momenta:R:3:forces:R:3 spacegroup="P 1" unit_cell=conventional occupancy="_JSON {\"0\": {\"Al\": 1}, \"1\": {\"Al\": 1}, \"2\": {\"N\": 1}, \"3\": {\"N\": 1}}" energy=-29.43359375 free_energy=-29.43359375 stress="-0.01377356518059969 -0.016446314752101898 0.012948768213391304 -0.016446314752101898 -0.023968679830431938 0.009969784878194332 0.012948768213391304 0.009969784878194332 -0.01205948181450367" pbc="T T T"
Al       1.60246140       0.92231284       2.54150849        0       0.57498203      -0.13491943       1.02882492      -1.31301343      -0.49033508      -0.87831497
Al       0.00328789       1.81111139       4.94718774        1      -0.44725791       0.00118072      -1.07867321      -0.30154222      -0.59423387       1.18011844
N        1.53678587       0.85870779       4.38099594        2       0.14052016      -0.46066744       0.20203858       0.28490838       0.67984605       1.25553644
N       -0.05228244       1.80432669       2.00436659        3      -0.26824429       0.59440614      -0.15219034       1.32964730       0.40472293      -1.55734026
4
Lattice="3.128588 0.0 0.0 -1.5642939988088433 2.709436998432005 0.0 0.0 0.0 5.016955" Properties=species:S:1:pos:R:3:spacegroup_kinds:I:1:momenta:R:3:forces:R:3 spacegroup="P 1" unit_cell=conventional occupancy="_JSON {\"0\": {\"Al\": 1}, \"1\": {\"Al\": 1}, \"2\": {\"N\": 1}, \"3\": {\"N\": 1}}" energy=-29.567258834838867 free_energy=-29.567258834838867 stress="0.012915591709315777 0.0017025702400133014 0.003579429117962718 0.0017025702400133014 -0.0258568674325943 -0.005369000136852264 0.003579429117962718 -0.005369000136852264 -0.011435030028223991" pbc="T T T"
Al       1.59598186       0.90138488       2.55101264        0      -0.85003947      -0.64755162      -0.41676345      -0.33522683       0.74370080      -1.26921022
Al      -0.01311799       1.79082858       4.96769658        1      -0.24557048      -0.74327805       1.65595788      -0.18280295      -0.17026806       1.21499634
N        1.52960407       0.86779351       4.41996341        2       0.16413077       0.60763589       0.63654576       0.31887692       0.39321300      -0.09057218
N       -0.00060094       1.87475185       1.90756520        3       0.93147917       0.78319375      -1.87574026       0.19915287      -0.96664572       0.14478594
4
Lattice="3.128588 0.0 0.0 -1.5642939988088433 2.709436998432005 0.0 0.0 0.0 5.016955" Properties=species:S:1:pos:R:3:spacegroup_kinds:I:1:momenta:R:3:forces:R:3 spacegroup="P 1" unit_cell=conventional occupancy="_JSON {\"0\": {\"Al\": 1}, \"1\": {\"Al\": 1}, \"2\": {\"N\": 1}, \"3\": {\"N\": 1}}" energy=-29.40627098083496 free_energy=-29.40627098083496 stress="0.01068881805986166 0.016498174518346786 -0.0081639988347888 0.016498174518346786 -0.009423324838280678 -0.015553985722362995 -0.0081639988347888 -0.015553985722362995 -0.06125401705503464" pbc="T T T"
Al       1.53423930       0.87298462       2.51007450        0      -1.60925372       0.09619162      -1.03262332       0.74608767       1.00298786       0.03482516
Al      -0.01349004       1.78470221       5.05709165        1       0.21561215      -0.04339799       1.72443283       0.02271218       0.40732846      -1.66437018
N        1.55208974       0.92225132       4.42203508        2       0.38659402       0.63935805      -0.93002916       0.04495830      -0.39009640      -0.56986117
N        0.09667396       1.88681816       1.81230440        3       1.00704755      -0.69215173       0.23821955      -0.81375802      -1.02021992       2.19940639
4
Lattice="3.128588 0.0 0.0 -1.5642939988088433 2.709436998432005 0.0 0.0 0.0 5.016955" Properties=species:S:1:pos:R:3:spacegroup_kinds:I:1:momenta:R:3:forces:R:3 spacegroup="P 1" unit_cell=conventional occupancy="_JSON {\"0\": {\"Al\": 1}, \"1\": {\"Al\": 1}, \"2\": {\"N\": 1}, \"3\": {\"N\": 1}}" energy=-29.201902389526367 free_energy=-29.201902389526367 stress="-0.026440821588039398 0.03815511614084244 -0.03138256445527077 0.03815511614084244 -0.004877483006566763 0.0015437363181263208 -0.03138256445527077 0.0015437363181263208 -0.051819805055856705" pbc="T T T"
Al       1.49382404       0.87740192       2.48150485        0      -0.08661657      -0.02748792       0.25595565       2.48428106      -0.46186259       1.22611582
Al      -0.02076738       1.79337851       5.08843298        1       0.00716729       0.60209061      -1.27068257       0.64723372       0.57433426      -2.36003971
N        1.60157223       0.96971685       4.33361320        2       0.49437272       0.53651026      -0.17473392      -0.53882706      -0.70145226       1.74608874
N        0.13924906       1.81421454       1.89535166        3      -0.41492343      -1.11111304       1.18946071      -2.59268832       0.58898067      -0.61216551
4
Lattice="3.128588 0.0 0.0 -1.5642939988088433 2.709436998432005 0.0 0.0 0.0 5.016955" Properties=species:S:1:pos:R:3:spacegroup_kinds:I:1:momenta:R:3:forces:R:3 spacegroup="P 1" unit_cell=conventional occupancy="_JSON {\"0\": {\"Al\": 1}, \"1\": {\"Al\": 1}, \"2\": {\"N\": 1}, \"3\": {\"N\": 1}}" energy=-29.574628829956055 free_energy=-29.574628829956055 stress="-0.023618120700120926 -0.014321225695312023 -0.011127909645438194 -0.014321225695312023 0.015030036680400372 -0.002854631282389164 -0.011127909645438194 -0.002854631282389164 -0.014440428465604782" pbc="T T T"
Al       1.53421963       0.88369269       2.53780579        0       1.55944052       0.36820891       1.55971050       0.29264358      -0.24000411      -0.91367650
Al      -0.00048007       1.82107763       4.98837345        1       1.01688597       0.86374298      -2.47525499       0.94369459       0.52251583       0.78486371
N        1.63583965       0.96584650       4.40663184        2      -0.31021927      -0.52489287       1.27117401      -1.15103638      -0.78907228       0.05687707
N       -0.01177521       1.75252280       1.90648727        3      -2.26610717      -0.70705913      -0.35562967      -0.08530193       0.50656044       0.07193574
4
Lattice="3.128588 0.0 0.0 -1.5642939988088433 2.709436998432005 0.0 0.0 0.0 5.016955" Properties=species:S:1:pos:R:3:spacegroup_kinds:I:1:momenta:R:3:forces:R:3 spacegroup="P 1" unit_cell=conventional occupancy="_JSON {\"0\": {\"Al\": 1}, \"1\": {\"Al\": 1}, \"2\": {\"N\": 1}, \"3\": {\"N\": 1}}" energy=-29.372072219848633 free_energy=-29.372072219848633 stress="-0.005629830528050661 -0.018719496205449104 0.015849454328417778 -0.018719496205449104 -0.03227310627698898 0.01721218228340149 0.015849454328417778 0.01721218228340149 -0.007298222742974758" pbc="T T T"
Al       1.57072835       0.88046442       2.56331974        0      -0.00039251      -0.37629491      -0.57844071      -1.34386349      -0.44065812      -1.50707638
Al       0.05055073       1.86456078       4.94968570        1       0.52727055       0.77034143       1.04960144      -0.49128973      -1.36433804       1.82584715
N        1.58204796       0.88176662       4.44992391        2      -0.27832263      -1.02263390      -0.55459276       0.15003665       1.16376221      -0.85894966
N       -0.12661085       1.75915453       1.88869864        3      -0.24855538       0.62858728       0.08343193       1.68511677       0.64123410       0.54017878
4
Lattice="3.128588 0.0 0.0 -1.5642939988088433 2.709436998432005 0.0 0.0 0.0 5.016955" Properties=species:S:1:pos:R:3:spacegroup_kinds:I:1:momenta:R:3:forces:R:3 spacegroup="P 1" unit_cell=conventional occupancy="_JSON {\"0\": {\"Al\": 1}, \"1\": {\"Al\": 1}, \"2\": {\"N\": 1}, \"3\": {\"N\": 1}}" energy=-29.596925735473633 free_energy=-29.596925735473633 stress="0.015976300463080406 -0.004506220109760761 0.006018719170242548 -0.004506220109760761 -0.025499584153294563 -0.004597050603479147 0.006018719170242548 -0.004597050603479147 -0.01001367811113596" pbc="T T T"
Al       1.53284806       0.86390066       2.51395076        0      -1.59464554      -0.16469687      -1.74991335      -0.27820319       0.89915907      -0.15420401
Al       0.06317844       1.83227864       5.00948377        1       0.38440008      -1.80666604       1.59449881      -0.58708358      -0.41271794       0.16725031
N        1.58572476       0.89623785       4.41422577        2       0.14193217       1.12964914      -0.09119144       0.25703937       0.38076785       0.00228111
N       -0.08152105       1.83862419       1.90381445        3       1.06831332       0.84171368       0.24660589       0.60824740      -0.86720884      -0.01532738
4
Lattice="3.128588 0.0 0.0 -1.5642939988088433 2.709436998432005 0.0 0.0 0.0 5.016955" Properties=species:S:1:pos:R:3:spacegroup_kinds:I:1:momenta:R:3:forces:R:3 spacegroup="P 1" unit_cell=conventional occupancy="_JSON {\"0\": {\"Al\": 1}, \"1\": {\"Al\": 1}, \"2\": {\"N\": 1}, \"3\": {\"N\": 1}}" energy=-29.462554931640625 free_energy=-29.462554931640625 stress="-0.005697157233953476 0.01084939669817686 -0.003906587604433298 0.01084939669817686 -0.01913374289870262 -0.012703188695013523 -0.003906587604433298 -0.012703188695013523 -0.011871302500367165" pbc="T T T"
Al       1.48347328       0.88264394       2.44527928        0      -0.30454515       1.01149523      -0.60004537       0.88393003       0.95768285       1.70776963
Al       0.06164411       1.77681259       5.07306068        1      -0.86715256      -0.75617405       0.43048950      -0.30080622       0.71655321      -1.72279811
N        1.61717714       0.94947180       4.40498426        2       0.38645885       0.04830087       0.18623286      -0.07233962      -0.67485994       0.48910657
N       -0.01486931       1.85626149       1.92266703        3       0.78523885      -0.30362215      -0.01667708      -0.51078415      -0.99937618      -0.47407806
4
Lattice="3.128588 0.0 0.0 -1.5642939988088433 2.709436998432005 0.0 0.0 0.0 5.016955" Properties=species:S:1:pos:R:3:spacegroup_kinds:I:1:momenta:R:3:forces:R:3 spacegroup="P 1" unit_cell=conventional occupancy="_JSON {\"0\": {\"Al\": 1}, \"1\": {\"Al\": 1}, \"2\": {\"N\": 1}, \"3\": {\"N\": 1}}" energy=-29.518749237060547 free_energy=-29.518749237060547 stress="-0.02337089367210865 0.006539981346577406 -0.016098283231258392 0.006539981346577406 0.006697254721075296 -0.00048242765478789806 -0.016098283231258392 -0.00048242765478789806 -0.022161351516842842" pbc="T T T"
Al       1.50607636       0.94974319       2.46463695        0       1.15921341       0.62635217       1.50689936       1.24247491      -0.60704529       1.15697384
Al       0.01335472       1.75088038       5.06242872        1      -0.91112007       0.14825228      -0.88962607       0.51474750       0.69610614      -1.43088961
N        1.62637962       0.90489618       4.42127858        2      -0.14223542      -0.64065021       0.21498396      -0.71771908      -0.51824182      -0.07984772
N        0.02538010       1.82158365       1.88963023        3      -0.10585787      -0.13395432      -0.83225730      -1.03950298       0.42918098       0.35376352
4
Lattice="3.128588 0.0 0.0 -1.5642939988088433 2.709436998432005 0.0 0.0 0.0 5.016955" Properties=species:S:1:pos:R:3:spacegroup_kinds:I:1:momenta:R:3:forces:R:3 spacegroup="P 1" unit_cell=conventional occupancy="_JSON {\"0\": {\"Al\": 1}, \"1\": {\"Al\": 1}, \"2\": {\"N\": 1}, \"3\": {\"N\": 1}}" energy=-29.605010986328125 free_energy=-29.605010986328125 stress="0.0015961149474605918 -0.006785965524613857 -0.0030953986570239067 -0.006785965524613857 0.001780625432729721 0.0017245159251615405 -0.0030953986570239067 0.0017245159251615405 -0.02311497926712036" pbc="T T T"
Al       1.56693922       0.93861030       2.54470908        0       1.44875342      -0.98943818       1.48437385      -0.01659370      -0.29131484      -1.20299697
Al      -0.01304567       1.78057343       4.99752450        1       0.01689837       1.11024959      -1.70730018       0.38438904       0.02358221       0.50759542
N        1.58384204       0.87104970       4.42155573        2      -0.67927513      -0.02704947      -0.19037188      -0.39237088       0.15178019      -0.39792567
N        0.00122213       1.81989278       1.85992051        3      -0.78637663      -0.09376201       0.41329819       0.02457555       0.11595242       1.09332776
4
Lattice="3.128588 0.0 0.0 -1.5642939988088433 2.709436998432005 0.0 0.0 0.0 5.016955" Properties=species:S:1:pos:R:3:spacegroup_kinds:I:1:momenta:R:3:forces:R:3 spacegroup="P 1" unit_cell=conventional occupancy="_JSON {\"0\": {\"Al\": 1}, \"1\": {\"Al\": 1}, \"2\": {\"N\": 1}, \"3\": {\"N\": 1}}" energy=-29.470205307006836 free_energy=-29.470205307006836 stress="0.0032028285786509514 -0.01780131086707115 0.01183849386870861 -0.01780131086707115 -0.04134894907474518 0.00735987164080143 0.01183849386870861 0.00735987164080143 -0.00516019482165575" pbc="T T T"
Al       1.62755626       0.89950079       2.54516750        0       1.04970771      -0.99981868      -0.80202910      -1.41065311       0.15933192      -0.91778892
Al      -0.00757054       1.81703570       4.95606283        1      -0.03757987       0.11959895      -0.16512781      -0.26242921      -0.84351695       1.41445720
N        1.52756231       0.85151201       4.42065482        2      -0.42752202       0.29023012      -0.07965766       0.31766278       0.98894727      -0.00115309
N       -0.06966665       1.84442110       1.93994536        3      -0.58460578       0.58998958       1.04681463       1.35541940      -0.30476201      -0.49551523
4
Lattice="3.128588 0.0 0.0 -1.5642939988088433 2.709436998432005 0.0 0.0 0.0 5.016955" Properties=species:S:1:pos:R:3:spacegroup_kinds:I:1:momenta:R:3:forces:R:3 spacegroup="P 1" unit_cell=conventional occupancy="_JSON {\"0\": {\"Al\": 1}, \"1\": {\"Al\": 1}, \"2\": {\"N\": 1}, \"3\": {\"N\": 1}}" energy=-29.452987670898438 free_energy=-29.452987670898438 stress="-0.013225088827311993 -0.023750077933073044 0.00791147630661726 -0.023750077933073044 -0.04793211817741394 -0.007333372253924608 0.00791147630661726 -0.007333372253924608 0.028633028268814087" pbc="T T T"
Al       1.63184038       0.85684028       2.46693548        0      -0.97589026      -0.55899603      -1.34838326      -1.39010203       1.11026359       1.17304146
Al      -0.02377743       1.82170279       4.98999598        1      -0.28018882       0.45883519       1.28013507      -0.08532464       0.08283392       0.34697160
N        1.52792698       0.92957747       4.44479003        2       0.11446505       0.97873257       0.08012625       0.22036049      -0.17398636       0.05599242
N       -0.04718867       1.83921501       2.00086010        3       1.14161403      -0.87857176      -0.01187801       1.25506592      -1.01911116      -1.57600546
4
Lattice="3.128588 0.0 0.0 -1.5642939988088433 2.709436998432005 0.0 0.0 0.0 5.016955" Properties=species:S:1:pos:R:3:spacegroup_kinds:I:1:momenta:R:3:forces:R:3 spacegroup="P 1" unit_cell=conventional occupancy="_JSON {\"0\": {\"Al\": 1}, \"1\": {\"Al\": 1}, \"2\": {\"N\": 1}, \"3\": {\"N\": 1}}" energy=-29.53631591796875 free_energy=-29.53631591796875 stress="-0.019857481122016907 0.013829014264047146 -0.005717405118048191 0.013829014264047146 -0.003164174733683467 -0.001671011676080525 -0.005717405118048191 -0.001671011676080525 -0.006260589696466923" pbc="T T T"
Al       1.56291509       0.86348347       2.43836897        0      -1.44558727       0.38889152       0.34074962       0.67285943       0.11609450       1.45909619
Al      -0.01834142       1.83613134       5.05736567        1       0.19731457      -0.00921556       1.04742143       0.06595240       0.15003514      -1.19267464
N        1.54726698       0.95741147       4.47045643        2      -0.01023986       0.05685060       0.14844023       0.09761358      -0.44420797      -0.65174705
N        0.05576965       1.77068662       1.90062723        3       1.25851258      -0.43652654      -1.53661125      -0.83642524       0.17807838       0.38532567
4
Lattice="3.128588 0.0 0.0 -1.5642939988088433 2.709436998432005 0.0 0.0 0.0 5.016955" Properties=species:S:1:pos:R:3:spacegroup_kinds:I:1:momenta:R:3:forces:R:3 spacegroup="P 1" unit_cell=conventional occupancy="_JSON {\"0\": {\"Al\": 1}, \"1\": {\"Al\": 1}, \"2\": {\"N\": 1}, \"3\": {\"N\": 1}}" energy=-29.5310001373291 free_energy=-29.5310001373291 stress="-0.018293963745236397 0.01570749096572399 -0.011607673950493336 0.01570749096572399 0.003148042829707265 0.004605679307132959 -0.011607673950493336 0.004605679307132959 -0.017258932814002037" pbc="T T T"
Al       1.54701079       0.87273545       2.46070913        0       0.71855746      -0.11584369       0.49435275       1.07476771      -0.28505835       1.06925476
Al      -0.01761629       1.84389394       5.05391119        1       0.19346383       0.17720482      -0.69190111       0.23187630      -0.07941951      -1.16825104
N        1.56395353       0.94331121       4.45961397        2       0.32487443      -0.12409459      -0.51346244      -0.11547053      -0.20503244      -0.72920334
N        0.06831348       1.75176759       1.87546338        3      -1.23689577       0.06273344       0.71101087      -1.19117355       0.56951052       0.82819945
4
Lattice="3.128588 0.0 0.0 -1.5642939988088433 2.709436998432005 0.0 0.0 0.0 5.016955" Properties=species:S:1:pos:R:3:spacegroup_kinds:I:1:momenta:R:3:forces:R:3 spacegroup="P 1" unit_cell=conventional occupancy="_JSON {\"0\": {\"Al\": 1}, \"1\": {\"Al\": 1}, \"2\": {\"N\": 1}, \"3\": {\"N\": 1}}" energy=-29.61321449279785 free_energy=-29.61321449279785 stress="-0.008381571620702744 -0.004276699386537075 0.0054928152821958065 -0.004276699386537075 -0.013937097042798996 0.0014804488746449351 0.0054928152821958065 0.0014804488746449351 0.012475494295358658" pbc="T T T"
Al       1.57767912       0.87033375       2.48321560        0       0.42145810      -0.10086085       0.75449458      -0.50598770       0.14215465       0.64867735
Al       0.00878679       1.84488740       5.00616580        1       0.94842504       0.04829661      -0.67234730      -0.28190932      -0.37569782       0.05942770
N        1.54733737       0.91884310       4.41695258        2      -0.50233587      -0.06173829      -0.86681599       0.26756650       0.16352601       0.34766579
N       -0.02491942       1.77881439       1.96659668        3      -0.86754732       0.11430253       0.78466877       0.52033049       0.07001735      -1.05577087
4
Lattice="3.128588 0.0 0.0 -1.5642939988088433 2.709436998432005 0.0 0.0 0.0 5.016955" Properties=species:S:1:pos:R:3:spacegroup_kinds:I:1:momenta:R:3:forces:R:3 spacegroup="P 1" unit_cell=conventional occupancy="_JSON {\"0\": {\"Al\": 1}, \"1\": {\"Al\": 1}, \"2\": {\"N\": 1}, \"3\": {\"N\": 1}}" energy=-29.557842254638672 free_energy=-29.557842254638672 stress="-0.016363827511668205 -0.002947743982076645 0.012903747148811817 -0.002947743982076645 -0.006207672413438559 0.0015376403462141752 0.012903747148811817 0.0015376403462141752 -0.002714479109272361" pbc="T T T"
Al       1.59068814       0.88023424       2.52274586        0      -0.41625606       0.17887054       0.33160899      -0.90884399      -0.14030990      -0.36867774
Al       0.01872290       1.83477377       4.97781990        1       0.14973993      -0.20763063      -0.17578596      -0.72829729      -0.10046370       0.72652471
N        1.52039168       0.92489995       4.39464377        2       0.19754349       0.25939902       0.47781807       0.72475874      -0.09604989       0.71574056
N       -0.04216858       1.77342028       1.96745695        3       0.06897260      -0.23063890      -0.63364104       0.91238272       0.33682370      -1.07358730
4
Lattice="3.128588 0.0 0.0 -1.5642939988088433 2.709436998432005 0.0 0.0 0.0 5.016955" Properties=species:S:1:pos:R:3:spacegroup_kinds:I:1:momenta:R:3:forces:R:3 spacegroup="P 1" unit_cell=conventional occupancy="_JSON {\"0\": {\"Al\": 1}, \"1\": {\"Al\": 1}, \"2\": {\"N\": 1}, \"3\": {\"N\": 1}}" energy=-29.621112823486328 free_energy=-29.621112823486328 stress="-0.021500641480088234 0.005276466719806194 -0.0032673960085958242 0.005276466719806194 0.010657794773578644 0.0019249131437391043 -0.0032673960085958242 0.0019249131437391043 -0.0015898009296506643" pbc="T T T"
Al       1.54767652       0.89587760       2.50832859        0      -0.85809930       0.46896590      -1.00003065       0.39160401      -0.39029053      -0.15032864
Al       0.00665800       1.82067514       5.00342493        1      -0.72966940      -0.11082647       1.46536773      -0.00949769       0.22696729       0.34863186
N        1.57185928       0.94293299       4.45440722        2       0.62349872      -0.37686537       0.64593147      -0.01969828      -0.43335128      -0.83890063
N        0.01256034       1.75229418       1.88600533        3       0.96426997       0.01872600      -1.11126843      -0.36240807       0.59667456       0.64059752
4
Lattice="3.128588 0.0 0.0 -1.5642939988088433 2.709436998432005 0.0 0.0 0.0 5.016955" Properties=species:S:1:pos:R:3:spacegroup_kinds:I:1:momenta:R:3:forces:R:3 spacegroup="P 1" unit_cell=conventional occupancy="_JSON {\"0\": {\"Al\": 1}, \"1\": {\"Al\": 1}, \"2\": {\"N\": 1}, \"3\": {\"N\": 1}}" energy=-29.520856857299805 free_energy=-29.520856857299805 stress="-0.014047318138182163 0.011820890940725803 -0.014255537651479244 0.011820890940725803 -0.005614618770778179 0.00936145894229412 -0.014255537651479244 0.00936145894229412 -0.019570859149098396" pbc="T T T"
Al       1.52999432       0.91403916       2.46474571        0       0.09545101      -0.23101196      -1.18071414       1.21875215      -0.63577086       0.99289775
Al      -0.00890656       1.82180733       5.05208966        1       0.31216940      -0.10747442       0.45537784       0.39472860      -0.38378513      -1.12710190
N        1.59437711       0.88605552       4.45928982        2      -0.04799015      -0.53350355      -0.20523326      -0.40810627       0.35578966      -0.79021633
N        0.05384446       1.77207214       1.87145003        3      -0.35963024       0.87198997       0.93056971      -1.20537424       0.66376621       0.92442012
4
Lattice="3.128588 0.0 0.0 -1.5642939988088433 2.709436998432005 0.0 0.0 0.0 5.016955" Properties=species:S:1:pos:R:3:spacegroup_kinds:I:1:momenta:R:3:forces:R:3 spacegroup="P 1" unit_cell=conventional occupancy="_JSON {\"0\": {\"Al\": 1}, \"1\": {\"Al\": 1}, \"2\": {\"N\": 1}, \"3\": {\"N\": 1}}" energy=-29.61878776550293 free_energy=-29.61878776550293 stress="0.010117869824171066 -0.0018220391357317567 -0.0018730160081759095 -0.0018220391357317567 -0.024783018976449966 0.004591099452227354 -0.0018730160081759095 0.004591099452227354 2.6394227461423725e-05" pbc="T T T"
Al       1.53818034       0.90928018       2.47247629        0       0.23228479      -0.27447316       1.41733321       0.21200854       0.18702245       0.85530579
Al       0.01802691       1.81430743       5.03506517        1       0.60360868      -0.42930300      -1.11140781       0.03760172      -0.69444203      -0.55142492
N        1.59518013       0.85128044       4.42414643        2       0.09084590       0.02420715      -0.77345436      -0.19470251       0.84070611       0.01228186
N       -0.01452983       1.83034432       1.92467361        3      -0.92673938       0.67956908       0.46752906      -0.05490780      -0.33328629      -0.31616282
4
Lattice="3.128588 0.0 0.0 -1.5642939988088433 2.709436998432005 0.0 0.0 0.0 5.016955" Properties=species:S:1:pos:R:3:spacegroup_kinds:I:1:momenta:R:3:forces:R:3 spacegroup="P 1" unit_cell=conventional occupancy="_JSON {\"0\": {\"Al\": 1}, \"1\": {\"Al\": 1}, \"2\": {\"N\": 1}, \"3\": {\"N\": 1}}" energy=-29.623743057250977 free_energy=-29.623743057250977 stress="0.004300205036997795 -0.008672626689076424 0.002881862223148346 -0.008672626689076424 -0.006943735294044018 -0.004434594418853521 0.002881862223148346 -0.004434594418853521 -0.014839176088571548" pbc="T T T"
Al       1.54321202       0.89379622       2.53645983        0      -0.00705477      -0.41529168       0.79445024      -0.25249845       0.39303023      -0.87834543
Al       0.03580901       1.79893950       4.98957807        1       0.09337960      -0.29525169      -0.61191979      -0.16601071       0.14058182       0.62745219
N        1.59619755       0.90645094       4.40111850        2      -0.02189844       1.09350698       0.27120839      -0.08899814      -0.09593788       0.34911054
N       -0.05911255       1.83464210       1.91219259        3      -0.06442643      -0.38296354      -0.45373879       0.50750738      -0.43767425      -0.09821741
