4
Lattice="3.128588 0.0 0.0 -1.5642939988088433 2.709436998432005 0.0 0.0 0.0 5.016955" Properties=species:S:1:pos:R:3:spacegroup_kinds:I:1:forces:R:3 spacegroup="P 1" unit_cell=conventional occupancy="_JSON {\"0\": {\"Al\": 1}, \"1\": {\"Al\": 1}, \"2\": {\"N\": 1}, \"3\": {\"N\": 1}}" energy=-29.673717498779297 free_energy=-29.673717498779297 stress="-0.0022254835348576307 -1.4418246792047285e-06 -2.9373437016033677e-08 -1.4418246792047285e-06 -0.0022273059003055096 -3.374452361981639e-08 -2.9373437016033677e-08 -3.374452361981639e-08 -0.005453634541481733" pbc="T T T"
Al       1.56429556       0.90314476       2.50490041        0      -0.00003367       0.00002049       0.00553178
Al      -0.00000156       1.80629224       5.01337791        1       0.00003434      -0.00001925       0.00552480
N        1.56429556       0.90314476       4.41849749        2      -0.00003627       0.00001976      -0.00552994
N       -0.00000156       1.80629224       1.91001999        3       0.00003550      -0.00002093      -0.00552659
