32
Lattice="6.17176593 0.0 0.0 0.0 8.01859859 0.0 0.0 0.0 13.03281824" Properties=species:S:1:pos:R:3:spacegroup_kinds:I:1:forces:R:3 spacegroup="P 1" unit_cell=conventional occupancy="_JSON {\"0\": {\"Li\": 1}, \"1\": {\"Li\": 1}, \"2\": {\"Li\": 1}, \"3\": {\"Li\": 1}, \"4\": {\"Li\": 1}, \"5\": {\"Li\": 1}, \"6\": {\"Li\": 1}, \"7\": {\"Li\": 1}, \"8\": {\"Li\": 1}, \"9\": {\"Li\": 1}, \"10\": {\"Li\": 1}, \"11\": {\"Li\": 1}, \"12\": {\"P\": 1}, \"13\": {\"P\": 1}, \"14\": {\"P\": 1}, \"15\": {\"P\": 1}, \"16\": {\"S\": 1}, \"17\": {\"S\": 1}, \"18\": {\"S\": 1}, \"19\": {\"S\": 1}, \"20\": {\"S\": 1}, \"21\": {\"S\": 1}, \"22\": {\"S\": 1}, \"23\": {\"S\": 1}, \"24\": {\"S\": 1}, \"25\": {\"S\": 1}, \"26\": {\"S\": 1}, \"27\": {\"S\": 1}, \"28\": {\"S\": 1}, \"29\": {\"S\": 1}, \"30\": {\"S\": 1}, \"31\": {\"S\": 1}}" energy=-140.3463134765625 free_energy=-140.3463134765625 stress="-0.002888650866225362 1.7152270714859696e-08 -6.364957005899896e-09 1.7152270714859696e-08 -0.004072301089763641 2.0881614659629122e-08 -6.364957005899896e-09 2.0881614659629122e-08 -0.002593608805909753" pbc="T T T"
Li       2.40166814       0.26892252       4.33377962        0      -0.01549051       0.00236101       0.00063473
Li       3.77009793       7.74967603       8.69903848        1       0.01548875      -0.00236116      -0.00063120
Li       5.48755106       7.74967602       2.18262939        2      -0.01549247      -0.00236094      -0.00063347
Li       0.68421476       0.26892248      10.85018869        3       0.01549067       0.00236098       0.00063197
Li       3.77009790       4.27822185       8.69903844        4       0.01548803       0.00235961      -0.00063276
Li       2.40166815       3.74037678       4.33377956        5      -0.01549025      -0.00236044       0.00063210
Li       0.68421482       3.74037679      10.85018871        6       0.01549062      -0.00235983       0.00063216
Li       5.48755105       4.27822181       2.18262936        7      -0.01549270       0.00236112      -0.00063249
Li       3.08588287      -0.00000019       0.00000014        8      -0.00000039       0.00000134      -0.00000150
Li       0.00000002      -0.00000003       6.51640918        9       0.00000053       0.00000049      -0.00000027
Li       3.08588293       4.00929944       0.00000010       10      -0.00000195      -0.00000067       0.00000123
Li       0.00000003       4.00929926       6.51640915       11       0.00000066      -0.00000018      -0.00000140
P        0.93932956       2.00464935       1.16793467       12      -0.00066645       0.00000967       0.03303513
P        5.23243627       6.01394887      11.86488423       13       0.00066481       0.00000020      -0.03306053
P        4.02521221       6.01394894       5.34847521       14      -0.00065130      -0.00000004      -0.03305045
P        2.14655388       2.00464960       7.68434322       15       0.00064888      -0.00000060       0.03305186
S        5.07612356       2.00464963       1.30682515       16       0.00280127      -0.00000077       0.01274886
S        1.09564238       6.01394881      11.72599301       17      -0.00280053       0.00000129      -0.01274645
S        1.99024092       6.01394899       5.20958394       18       0.00279517       0.00000001      -0.01274665
S        4.18152505       2.00464967       7.82323420       19      -0.00279436      -0.00000130       0.01274678
S        1.68772174       2.00464971      12.25093561       20       0.03397168      -0.00000122       0.02524929
S        4.48404415       6.01394887       0.78188257       21      -0.03397479       0.00000078      -0.02523242
S        4.77360472       6.01394895       7.29829162       22       0.03397013       0.00000068      -0.02524299
S        1.39816134       2.00464970       5.73452692       23      -0.03396964       0.00000045       0.02524433
S        1.68016699       0.28147984       2.00960385       24       0.02273555      -0.00259725      -0.01691792
S        4.49159899       7.73711929      11.02321407       25      -0.02272946       0.00258577       0.01692467
S        4.76604993       7.73711927       4.50680504       26       0.02273053       0.00258585       0.01692593
S        1.40571575       0.28147954       8.52601310       27      -0.02272611      -0.00258448      -0.01692753
S        4.49159900       4.29077887      11.02321426       28      -0.02273013      -0.00258731       0.01692411
S        1.68016714       3.72781982       2.00960395       29       0.02273002       0.00258663      -0.01692297
S        1.40571577       3.72781971       8.52601314       30      -0.02272588       0.00258498      -0.01692787
S        4.76604998       4.29077864       4.50680501       31       0.02272971      -0.00258464       0.01692579
