4
Lattice="3.128588 0.0 0.0 -1.5642939988088433 2.709436998432005 0.0 0.0 0.0 5.016955" Properties=species:S:1:pos:R:3:spacegroup_kinds:I:1:forces:R:3 spacegroup="P 1" unit_cell=conventional occupancy="_JSON {\"0\": {\"Al\": 1}, \"1\": {\"Al\": 1}, \"2\": {\"N\": 1}, \"3\": {\"N\": 1}}" energy=-29.673717498779297 free_energy=-29.673717498779297 stress="-0.0022255219519138336 -1.3744969464823953e-06 8.773935050720993e-11 -1.3744969464823953e-06 -0.002227678196504712 -3.670517756404479e-08 8.773935050720993e-11 -3.670517756404479e-08 -0.005453731864690781" pbc="T T T"
Al       1.56429556       0.90314476       2.50490041        0      -0.00003438       0.00002132       0.00553261
Al      -0.00000156       1.80629224       5.01337791        1       0.00003434      -0.00001969       0.00552385
N        1.56429556       0.90314476       4.41849749        2      -0.00003618       0.00002011      -0.00553031
N       -0.00000156       1.80629224       1.91001999        3       0.00003619      -0.00002189      -0.00552592
