4
Lattice="3.128588 0.0 0.0 -1.5642939988088433 2.709436998432005 0.0 0.0 0.0 5.016955" Properties=species:S:1:pos:R:3:spacegroup_kinds:I:1:momenta:R:3:forces:R:3 spacegroup="P 1" unit_cell=conventional occupancy="_JSON {\"0\": {\"Al\": 1}, \"1\": {\"Al\": 1}, \"2\": {\"N\": 1}, \"3\": {\"N\": 1}}" energy=-29.62373924255371 free_energy=-29.62373924255371 stress="0.004300246946513653 -0.008672717027366161 0.0028820254374295473 -0.008672717027366161 -0.006943750660866499 -0.004434409085661173 0.0028820254374295473 -0.004434409085661173 -0.014838962815701962" pbc="T T T"
Al       1.54321208       0.89379621       2.53645984        0      -0.00705336      -0.41529120       0.79444782      -0.25250253       0.39302832      -0.87834632
Al       0.03580898       1.79893952       4.98957805        1       0.09337934      -0.29525103      -0.61191742      -0.16601238       0.14058116       0.62745619
N        1.59619757       0.90645091       4.40111850        2      -0.02189865       1.09350659       0.27120815      -0.08899701      -0.09593681       0.34911531
N       -0.05911263       1.83464207       1.91219265        3      -0.06442734      -0.38296439      -0.45373848       0.50751197      -0.43767291      -0.09822516
