4
Lattice="3.128588 0.0 0.0 -1.5642939988088433 2.709436998432005 0.0 0.0 0.0 5.016955" Properties=species:S:1:pos:R:3:spacegroup_kinds:I:1:momenta:R:3:forces:R:3 spacegroup="P 1" unit_cell=conventional occupancy="_JSON {\"0\": {\"Al\": 1}, \"1\": {\"Al\": 1}, \"2\": {\"N\": 1}, \"3\": {\"N\": 1}}" energy=-29.673717498779297 free_energy=-29.673717498779297 stress="-0.0022256423253566027 -1.384142592542048e-06 6.560441523362215e-09 -1.384142592542048e-06 -0.002227643271908164 -1.9315605115366452e-08 6.560441523362215e-09 -1.9315605115366452e-08 -0.005453651305288076" pbc="T T T"
Al       1.56429556       0.90314476       2.50490041        0       0.68448204       0.53670047       0.91071479      -0.00003526       0.00001977       0.00553367
Al      -0.00000156       1.80629224       5.01337791        1       0.31075784       0.39520501      -1.87833745       0.00003457      -0.00002057       0.00552366
N        1.56429556       0.90314476       4.41849749        2      -0.23293981      -0.79739853      -0.40745139      -0.00003650       0.00002109      -0.00553196
N       -0.00000156       1.80629224       1.91001999        3      -0.76230006      -0.13450696       1.37507406       0.00003730      -0.00002017      -0.00552527
4
Lattice="3.128588 0.0 0.0 -1.5642939988088433 2.709436998432005 0.0 0.0 0.0 5.016955" Properties=species:S:1:pos:R:3:spacegroup_kinds:I:1:momenta:R:3:forces:R:3 spacegroup="P 1" unit_cell=conventional occupancy="_JSON {\"0\": {\"Al\": 1}, \"1\": {\"Al\": 1}, \"2\": {\"N\": 1}, \"3\": {\"N\": 1}}" energy=-29.43359375 free_energy=-29.43359375 stress="-0.013773581944406033 -0.016446353867650032 0.0129487793892622 -0.016446353867650032 -0.023968761786818504 0.009969736449420452 0.0129487793892622 0.009969736449420452 -0.012059269472956657" pbc="T T T"
Al       1.60246141       0.92231284       2.54150849        0       0.57498226      -0.13491974       1.02882460      -1.31301284      -0.49033505      -0.87831223
Al       0.00328788       1.81111139       4.94718774        1      -0.44725801       0.00118070      -1.07867295      -0.30154148      -0.59423304       1.18011868
N        1.53678588       0.85870780       4.38099594        2       0.14052028      -0.46066734       0.20203864       0.28490761       0.67984581       1.25553489
N       -0.05228246       1.80432670       2.00436660        3      -0.26824456       0.59440636      -0.15219028       1.32964683       0.40472230      -1.55734110
4
Lattice="3.128588 0.0 0.0 -1.5642939988088433 2.709436998432005 0.0 0.0 0.0 5.016955" Properties=species:S:1:pos:R:3:spacegroup_kinds:I:1:momenta:R:3:forces:R:3 spacegroup="P 1" unit_cell=conventional occupancy="_JSON {\"0\": {\"Al\": 1}, \"1\": {\"Al\": 1}, \"2\": {\"N\": 1}, \"3\": {\"N\": 1}}" energy=-29.5672550201416 free_energy=-29.5672550201416 stress="0.012915763072669506 0.0017024484695866704 0.0035793883726000786 0.0017024484695866704 -0.025857120752334595 -0.005369138438254595 0.0035793883726000786 -0.005369138438254595 -0.011435338295996189" pbc="T T T"
Al       1.59598186       0.90138486       2.55101264        0      -0.85003991      -0.64755202      -0.41676300      -0.33522782       0.74370450      -1.26921320
Al      -0.01311799       1.79082859       4.96769658        1      -0.24557007      -0.74327782       1.65595764      -0.18280366      -0.17026807       1.21499670
N        1.52960407       0.86779351       4.41996343        2       0.16413050       0.60763576       0.63654602       0.31887764       0.39321387      -0.09056962
N       -0.00060095       1.87475188       1.90756519        3       0.93147945       0.78319410      -1.87574061       0.19915366      -0.96665025       0.14478618
4
Lattice="3.128588 0.0 0.0 -1.5642939988088433 2.709436998432005 0.0 0.0 0.0 5.016955" Properties=species:S:1:pos:R:3:spacegroup_kinds:I:1:momenta:R:3:forces:R:3 spacegroup="P 1" unit_cell=conventional occupancy="_JSON {\"0\": {\"Al\": 1}, \"1\": {\"Al\": 1}, \"2\": {\"N\": 1}, \"3\": {\"N\": 1}}" energy=-29.406274795532227 free_energy=-29.406274795532227 stress="0.010688851587474346 0.016498230397701263 -0.008163982070982456 0.016498230397701263 -0.00942317396402359 -0.015553947538137436 -0.008163982070982456 -0.015553947538137436 -0.06125400587916374" pbc="T T T"
Al       1.53423928       0.87298460       2.51007451        0      -1.60925399       0.09619190      -1.03262285       0.74608791       1.00298643       0.03482295
Al      -0.01349003       1.78470221       5.05709164        1       0.21561217      -0.04339822       1.72443258       0.02271204       0.40732926      -1.66436887
N        1.55208973       0.92225133       4.42203511        2       0.38659415       0.63935827      -0.93002926       0.04495843      -0.39009672      -0.56986165
N        0.09667397       1.88681819       1.81230438        3       1.00704768      -0.69215196       0.23821952      -0.81375825      -1.02021885       2.19940710
4
Lattice="3.128588 0.0 0.0 -1.5642939988088433 2.709436998432005 0.0 0.0 0.0 5.016955" Properties=species:S:1:pos:R:3:spacegroup_kinds:I:1:momenta:R:3:forces:R:3 spacegroup="P 1" unit_cell=conventional occupancy="_JSON {\"0\": {\"Al\": 1}, \"1\": {\"Al\": 1}, \"2\": {\"N\": 1}, \"3\": {\"N\": 1}}" energy=-29.201902389526367 free_energy=-29.201902389526367 stress="-0.026440834626555443 0.03815525025129318 -0.03138256445527077 0.03815525025129318 -0.004877520725131035 0.001543695805594325 -0.03138256445527077 0.001543695805594325 -0.051819853484630585" pbc="T T T"
Al       1.49382401       0.87740190       2.48150489        0      -0.08661674      -0.02748796       0.25595587       2.48428106      -0.46186203       1.22611606
Al      -0.02076737       1.79337851       5.08843296        1       0.00716724       0.60209067      -1.27068246       0.64723343       0.57433379      -2.36004019
N        1.60157223       0.96971686       4.33361319        2       0.49437289       0.53651023      -0.17473422      -0.53882629      -0.70145202       1.74608970
N        0.13924908       1.81421457       1.89535165        3      -0.41492336      -1.11111298       1.18946081      -2.59268832       0.58898020      -0.61216569
4
Lattice="3.128588 0.0 0.0 -1.5642939988088433 2.709436998432005 0.0 0.0 0.0 5.016955" Properties=species:S:1:pos:R:3:spacegroup_kinds:I:1:momenta:R:3:forces:R:3 spacegroup="P 1" unit_cell=conventional occupancy="_JSON {\"0\": {\"Al\": 1}, \"1\": {\"Al\": 1}, \"2\": {\"N\": 1}, \"3\": {\"N\": 1}}" energy=-29.574628829956055 free_energy=-29.574628829956055 stress="-0.02361789159476757 -0.014321287162601948 -0.011127922683954239 -0.014321287162601948 0.015029947273433208 -0.0028546866960823536 -0.011127922683954239 -0.0028546866960823536 -0.014440319500863552" pbc="T T T"
Al       1.53421959       0.88369267       2.53780583        0       1.55944044       0.36820891       1.55971006       0.29264468      -0.24000375      -0.91367662
Al      -0.00048007       1.82107763       4.98837343        1       1.01688564       0.86374314      -2.47525455       0.94369602       0.52251697       0.78486252
N        1.63583968       0.96584651       4.40663182        2      -0.31021897      -0.52489296       1.27117402      -1.15103769      -0.78907216       0.05687811
N       -0.01177517       1.75252285       1.90648728        3      -2.26610709      -0.70705911      -0.35562949      -0.08530331       0.50655901       0.07193592
4
Lattice="3.128588 0.0 0.0 -1.5642939988088433 2.709436998432005 0.0 0.0 0.0 5.016955" Properties=species:S:1:pos:R:3:spacegroup_kinds:I:1:momenta:R:3:forces:R:3 spacegroup="P 1" unit_cell=conventional occupancy="_JSON {\"0\": {\"Al\": 1}, \"1\": {\"Al\": 1}, \"2\": {\"N\": 1}, \"3\": {\"N\": 1}}" energy=-29.3720703125 free_energy=-29.3720703125 stress="-0.005629662424325943 -0.01871960423886776 0.015849368646740913 -0.01871960423886776 -0.03227291256189346 0.01721217855811119 0.015849368646740913 0.01721217855811119 -0.007298261858522892" pbc="T T T"
Al       1.57072835       0.88046441       2.56331976        0      -0.00039135      -0.37629433      -0.57844128      -1.34386408      -0.44065732      -1.50707722
Al       0.05055071       1.86456080       4.94968570        1       0.52727016       0.77034172       1.04960198      -0.49128902      -1.36433911       1.82584882
N        1.58204801       0.88176662       4.44992391        2      -0.27832254      -1.02263399      -0.55459263       0.15003566       1.16376305      -0.85894954
N       -0.12661086       1.75915455       1.88869865        3      -0.24855627       0.62858656       0.08343191       1.68511724       0.64123368       0.54017824
4
Lattice="3.128588 0.0 0.0 -1.5642939988088433 2.709436998432005 0.0 0.0 0.0 5.016955" Properties=species:S:1:pos:R:3:spacegroup_kinds:I:1:momenta:R:3:forces:R:3 spacegroup="P 1" unit_cell=conventional occupancy="_JSON {\"0\": {\"Al\": 1}, \"1\": {\"Al\": 1}, \"2\": {\"N\": 1}, \"3\": {\"N\": 1}}" energy=-29.596927642822266 free_energy=-29.596927642822266 stress="0.015976430848240852 -0.004506235010921955 0.006018636282533407 -0.004506235010921955 -0.025499509647488594 -0.004597135353833437 0.006018636282533407 -0.004597135353833437 -0.010013558901846409" pbc="T T T"
Al       1.53284811       0.86390067       2.51395075        0      -1.59464483      -0.16469699      -1.74991361      -0.27820748       0.89915705      -0.15420336
Al       0.06317842       1.83227867       5.00948380        1       0.38440027      -1.80666583       1.59449900      -0.58708435      -0.41271651       0.16724949
N        1.58572477       0.89623786       4.41422579        2       0.14193150       1.12964927      -0.09119112       0.25704080       0.38076577       0.00228303
N       -0.08152113       1.83862416       1.90381445        3       1.06831304       0.84171350       0.24660568       0.60825121      -0.86720598      -0.01532944
4
Lattice="3.128588 0.0 0.0 -1.5642939988088433 2.709436998432005 0.0 0.0 0.0 5.016955" Properties=species:S:1:pos:R:3:spacegroup_kinds:I:1:momenta:R:3:forces:R:3 spacegroup="P 1" unit_cell=conventional occupancy="_JSON {\"0\": {\"Al\": 1}, \"1\": {\"Al\": 1}, \"2\": {\"N\": 1}, \"3\": {\"N\": 1}}" energy=-29.462553024291992 free_energy=-29.462553024291992 stress="-0.005697231739759445 0.010849399492144585 -0.003906568977981806 0.010849399492144585 -0.01913393661379814 -0.012703201733529568 -0.003906568977981806 -0.012703201733529568 -0.01187144871801138" pbc="T T T"
Al       1.48347334       0.88264394       2.44527929        0      -0.30454561       1.01149499      -0.60004492       0.88392985       0.95768535       1.70777082
Al       0.06164411       1.77681261       5.07306068        1      -0.86715227      -0.75617417       0.43048861      -0.30080616       0.71655399      -1.72280145
N        1.61717706       0.94947182       4.40498430        2       0.38645820       0.04830102       0.18623297      -0.07233933      -0.67486155       0.48910725
N       -0.01486938       1.85626147       1.92266703        3       0.78523967      -0.30362190      -0.01667672      -0.51078427      -0.99937785      -0.47407642
4
Lattice="3.128588 0.0 0.0 -1.5642939988088433 2.709436998432005 0.0 0.0 0.0 5.016955" Properties=species:S:1:pos:R:3:spacegroup_kinds:I:1:momenta:R:3:forces:R:3 spacegroup="P 1" unit_cell=conventional occupancy="_JSON {\"0\": {\"Al\": 1}, \"1\": {\"Al\": 1}, \"2\": {\"N\": 1}, \"3\": {\"N\": 1}}" energy=-29.518749237060547 free_energy=-29.518749237060547 stress="-0.023370793089270592 0.006540050730109215 -0.016098203137516975 0.006540050730109215 0.006697392091155052 -0.0004823842318728566 -0.016098203137516975 -0.0004823842318728566 -0.02216128446161747" pbc="T T T"
Al       1.50607638       0.94974319       2.46463696        0       1.15921205       0.62635241       1.50689901       1.24247527      -0.60704613       1.15697527
Al       0.01335472       1.75088041       5.06242872        1      -0.91112068       0.14825206      -0.88962563       0.51474375       0.69610548      -1.43089056
N        1.62637954       0.90489619       4.42127856        2      -0.14223467      -0.64065031       0.21498323      -0.71771526      -0.51824141      -0.07984784
N        0.02538012       1.82158363       1.88963030        3      -0.10585673      -0.13395425      -0.83225668      -1.03950357       0.42918229       0.35376364
4
Lattice="3.128588 0.0 0.0 -1.5642939988088433 2.709436998432005 0.0 0.0 0.0 5.016955" Properties=species:S:1:pos:R:3:spacegroup_kinds:I:1:momenta:R:3:forces:R:3 spacegroup="P 1" unit_cell=conventional occupancy="_JSON {\"0\": {\"Al\": 1}, \"1\": {\"Al\": 1}, \"2\": {\"N\": 1}, \"3\": {\"N\": 1}}" energy=-29.605010986328125 free_energy=-29.605010986328125 stress="0.001596012618392706 -0.006785803474485874 -0.00309542752802372 -0.006785803474485874 0.0017804863164201379 0.0017245429335162044 -0.00309542752802372 0.0017245429335162044 -0.023114951327443123" pbc="T T T"
Al       1.56693923       0.93861030       2.54470908        0       1.44875333      -0.98943839       1.48437356      -0.01659328      -0.29131591      -1.20299506
Al      -0.01304571       1.78057344       4.99752455        1       0.01689760       1.11024958      -1.70729878       0.38438851       0.02358305       0.50759369
N        1.58384207       0.87104971       4.42155569        2      -0.67927405      -0.02704970      -0.19037166      -0.39237016       0.15177889      -0.39792624
N        0.00122215       1.81989279       1.85992052        3      -0.78637686      -0.09376160       0.41329682       0.02457508       0.11595403       1.09332776
4
Lattice="3.128588 0.0 0.0 -1.5642939988088433 2.709436998432005 0.0 0.0 0.0 5.016955" Properties=species:S:1:pos:R:3:spacegroup_kinds:I:1:momenta:R:3:forces:R:3 spacegroup="P 1" unit_cell=conventional occupancy="_JSON {\"0\": {\"Al\": 1}, \"1\": {\"Al\": 1}, \"2\": {\"N\": 1}, \"3\": {\"N\": 1}}" energy=-29.470205307006836 free_energy=-29.470205307006836 stress="0.003203271422535181 -0.017801430076360703 0.011838394217193127 -0.017801430076360703 -0.04134901985526085 0.0073599740862846375 0.011838394217193127 0.0073599740862846375 -0.005160402040928602" pbc="T T T"
Al       1.62755627       0.89950078       2.54516749        0       1.04970849      -0.99981854      -0.80202939      -1.41065168       0.15933162      -0.91778946
Al      -0.00757059       1.81703571       4.95606290        1      -0.03757916       0.11959848      -0.16512763      -0.26242656      -0.84351647       1.41445780
N        1.52756238       0.85151200       4.42065482        2      -0.42752244       0.29023038      -0.07965746       0.31765857       0.98894691      -0.00115379
N       -0.06966667       1.84442114       1.93994529        3      -0.58460688       0.58998958       1.04681451       1.35541975      -0.30476213      -0.49551439
4
Lattice="3.128588 0.0 0.0 -1.5642939988088433 2.709436998432005 0.0 0.0 0.0 5.016955" Properties=species:S:1:pos:R:3:spacegroup_kinds:I:1:momenta:R:3:forces:R:3 spacegroup="P 1" unit_cell=conventional occupancy="_JSON {\"0\": {\"Al\": 1}, \"1\": {\"Al\": 1}, \"2\": {\"N\": 1}, \"3\": {\"N\": 1}}" energy=-29.452985763549805 free_energy=-29.452985763549805 stress="-0.013225197792053223 -0.023750100284814835 0.007911523804068565 -0.023750100284814835 -0.04793192818760872 -0.0073331622406840324 0.007911523804068565 -0.0073331622406840324 0.028632791712880135" pbc="T T T"
Al       1.63184041       0.85684029       2.46693547        0      -0.97589074      -0.55899584      -1.34838378      -1.39010692       1.11026096       1.17303550
Al      -0.02377742       1.82170279       4.98999603        1      -0.28018741       0.45883535       1.28013454      -0.08532909       0.08283363       0.34697461
N        1.52792696       0.92957746       4.44479005        2       0.11446405       0.97873228       0.08012580       0.22036543      -0.17398784       0.05598457
N       -0.04718875       1.83921502       2.00086006        3       1.14161415      -0.87857187      -0.01187649       1.25507057      -1.01910675      -1.57599449
4
Lattice="3.128588 0.0 0.0 -1.5642939988088433 2.709436998432005 0.0 0.0 0.0 5.016955" Properties=species:S:1:pos:R:3:spacegroup_kinds:I:1:momenta:R:3:forces:R:3 spacegroup="P 1" unit_cell=conventional occupancy="_JSON {\"0\": {\"Al\": 1}, \"1\": {\"Al\": 1}, \"2\": {\"N\": 1}, \"3\": {\"N\": 1}}" energy=-29.536317825317383 free_energy=-29.536317825317383 stress="-0.019857507199048996 0.013829047791659832 -0.005717427935451269 0.013829047791659832 -0.0031640566885471344 -0.0016710123745724559 -0.005717427935451269 -0.0016710123745724559 -0.006260623224079609" pbc="T T T"
Al       1.56291506       0.86348348       2.43836895        0      -1.44558911       0.38889102       0.34075012       0.67285889       0.11609375       1.45909679
Al      -0.01834138       1.83613133       5.05736568        1       0.19731441      -0.00921591       1.04742012       0.06595118       0.15003657      -1.19267488
N        1.54726694       0.95741147       4.47045643        2      -0.01023912       0.05685100       0.14844032       0.09761509      -0.44420996      -0.65174806
N        0.05576965       1.77068663       1.90062731        3       1.25851384      -0.43652617      -1.53661047      -0.83642513       0.17807961       0.38532627
4
Lattice="3.128588 0.0 0.0 -1.5642939988088433 2.709436998432005 0.0 0.0 0.0 5.016955" Properties=species:S:1:pos:R:3:spacegroup_kinds:I:1:momenta:R:3:forces:R:3 spacegroup="P 1" unit_cell=conventional occupancy="_JSON {\"0\": {\"Al\": 1}, \"1\": {\"Al\": 1}, \"2\": {\"N\": 1}, \"3\": {\"N\": 1}}" energy=-29.531002044677734 free_energy=-29.531002044677734 stress="-0.018294110894203186 0.015707531943917274 -0.011607866734266281 0.015707531943917274 0.0031479434110224247 0.004605682101100683 -0.011607866734266281 0.004605682101100683 -0.017258819192647934" pbc="T T T"
Al       1.54701070       0.87273544       2.46070916        0       0.71855704      -0.11584408       0.49435407       1.07476914      -0.28505430       1.06925356
Al      -0.01761627       1.84389391       5.05391116        1       0.19346328       0.17720451      -0.69190105       0.23187733      -0.07941931      -1.16825104
N        1.56395358       0.94331123       4.45961400        2       0.32487544      -0.12409445      -0.51346211      -0.11547104      -0.20503406      -0.72920150
N        0.06831355       1.75176765       1.87546341        3      -1.23689572       0.06273393       0.71100921      -1.19117534       0.56950772       0.82819903
4
Lattice="3.128588 0.0 0.0 -1.5642939988088433 2.709436998432005 0.0 0.0 0.0 5.016955" Properties=species:S:1:pos:R:3:spacegroup_kinds:I:1:momenta:R:3:forces:R:3 spacegroup="P 1" unit_cell=conventional occupancy="_JSON {\"0\": {\"Al\": 1}, \"1\": {\"Al\": 1}, \"2\": {\"N\": 1}, \"3\": {\"N\": 1}}" energy=-29.613210678100586 free_energy=-29.613210678100586 stress="-0.008381621912121773 -0.004276615101844072 0.005492899566888809 -0.004276615101844072 -0.013937169685959816 0.0014804089441895485 0.005492899566888809 0.0014804089441895485 0.012475415132939816" pbc="T T T"
Al       1.57767905       0.87033375       2.48321565        0       0.42146003      -0.10086006       0.75449367      -0.50598657       0.14215362       0.64867628
Al       0.00878681       1.84488739       5.00616578        1       0.94842547       0.04829726      -0.67234607      -0.28191122      -0.37569794       0.05942900
N        1.54733745       0.91884310       4.41695260        2      -0.50233613      -0.06173905      -0.86681665       0.26756853       0.16352615       0.34766582
N       -0.02491942       1.77881442       1.96659666        3      -0.86754933       0.11430175       0.78466905       0.52032924       0.07001816      -1.05577111
4
Lattice="3.128588 0.0 0.0 -1.5642939988088433 2.709436998432005 0.0 0.0 0.0 5.016955" Properties=species:S:1:pos:R:3:spacegroup_kinds:I:1:momenta:R:3:forces:R:3 spacegroup="P 1" unit_cell=conventional occupancy="_JSON {\"0\": {\"Al\": 1}, \"1\": {\"Al\": 1}, \"2\": {\"N\": 1}, \"3\": {\"N\": 1}}" energy=-29.557838439941406 free_energy=-29.557838439941406 stress="-0.016363918781280518 -0.0029474771581590176 0.01290377788245678 -0.0029474771581590176 -0.006207945756614208 0.001537524745799601 0.01290377788245678 0.001537524745799601 -0.0027148660738021135" pbc="T T T"
Al       1.59068816       0.88023427       2.52274585        0      -0.41625531       0.17887053       0.33160769      -0.90884364      -0.14031197      -0.36868054
Al       0.01872293       1.83477378       4.97781995        1       0.14974052      -0.20763088      -0.17578481      -0.72829783      -0.10046344       0.72652972
N        1.52039172       0.92489992       4.39464374        2       0.19754252       0.25939933       0.47781774       0.72475868      -0.09604896       0.71573877
N       -0.04216871       1.77342024       1.96745698        3       0.06897230      -0.23063908      -0.63364061       0.91238260       0.33682445      -1.07358778
4
Lattice="3.128588 0.0 0.0 -1.5642939988088433 2.709436998432005 0.0 0.0 0.0 5.016955" Properties=species:S:1:pos:R:3:spacegroup_kinds:I:1:momenta:R:3:forces:R:3 spacegroup="P 1" unit_cell=conventional occupancy="_JSON {\"0\": {\"Al\": 1}, \"1\": {\"Al\": 1}, \"2\": {\"N\": 1}, \"3\": {\"N\": 1}}" energy=-29.621110916137695 free_energy=-29.621110916137695 stress="-0.021500669419765472 0.005276363808661699 -0.0032674202229827642 0.005276363808661699 0.010657916776835918 0.0019248767057433724 -0.0032674202229827642 0.0019248767057433724 -0.0015900307334959507" pbc="T T T"
Al       1.54767651       0.89587759       2.50832858        0      -0.85810061       0.46896484      -1.00002964       0.39160454      -0.39029083      -0.15032130
Al       0.00665806       1.82067513       5.00342499        1      -0.72966970      -0.11082705       1.46536719      -0.00950184       0.22697161       0.34862670
N        1.57185924       0.94293299       4.45440720        2       0.62349853      -0.37686460       0.64593194      -0.01969581      -0.43335366      -0.83890021
N        0.01256030       1.75229421       1.88600532        3       0.96427182       0.01872675      -1.11126947      -0.36240685       0.59667289       0.64059478
4
Lattice="3.128588 0.0 0.0 -1.5642939988088433 2.709436998432005 0.0 0.0 0.0 5.016955" Properties=species:S:1:pos:R:3:spacegroup_kinds:I:1:momenta:R:3:forces:R:3 spacegroup="P 1" unit_cell=conventional occupancy="_JSON {\"0\": {\"Al\": 1}, \"1\": {\"Al\": 1}, \"2\": {\"N\": 1}, \"3\": {\"N\": 1}}" energy=-29.520854949951172 free_energy=-29.520854949951172 stress="-0.014047576114535332 0.011820867657661438 -0.014255582354962826 0.011820867657661438 -0.00561487628147006 0.009361526928842068 -0.014255582354962826 0.009361526928842068 -0.019571051001548767" pbc="T T T"
Al       1.52999426       0.91403913       2.46474575        0       0.09545043      -0.23101254      -1.18071269       1.21875453      -0.63577366       0.99290049
Al      -0.00890653       1.82180730       5.05208964        1       0.31216856      -0.10747469       0.45537542       0.39472693      -0.38378456      -1.12710273
N        1.59437708       0.88605558       4.45928985        2      -0.04798971      -0.53350315      -0.20523270      -0.40810487       0.35578957      -0.79021657
N        0.05384457       1.77207218       1.87144998        3      -0.35962926       0.87199035       0.93057006      -1.20537651       0.66376865       0.92441887
4
Lattice="3.128588 0.0 0.0 -1.5642939988088433 2.709436998432005 0.0 0.0 0.0 5.016955" Properties=species:S:1:pos:R:3:spacegroup_kinds:I:1:momenta:R:3:forces:R:3 spacegroup="P 1" unit_cell=conventional occupancy="_JSON {\"0\": {\"Al\": 1}, \"1\": {\"Al\": 1}, \"2\": {\"N\": 1}, \"3\": {\"N\": 1}}" energy=-29.61878776550293 free_energy=-29.61878776550293 stress="0.010117569006979465 -0.0018220394849777222 -0.00187324034050107 -0.0018220394849777222 -0.024783136323094368 0.00459123682230711 -0.00187324034050107 0.00459123682230711 2.6483927285880782e-05" pbc="T T T"
Al       1.53818032       0.90928014       2.47247638        0       0.23228653      -0.27447278       1.41733289       0.21201387       0.18702564       0.85529143
Al       0.01802690       1.81430742       5.03506509        1       0.60360796      -0.42930213      -1.11140748       0.03760353      -0.69444346      -0.55141813
N        1.59518014       0.85128047       4.42414646        2       0.09084626       0.02420620      -0.77345484      -0.19470377       0.84070599       0.01228420
N       -0.01452976       1.83034435       1.92467361        3      -0.92674076       0.67956865       0.46752950      -0.05491369      -0.33328807      -0.31615746
4
Lattice="3.128588 0.0 0.0 -1.5642939988088433 2.709436998432005 0.0 0.0 0.0 5.016955" Properties=species:S:1:pos:R:3:spacegroup_kinds:I:1:momenta:R:3:forces:R:3 spacegroup="P 1" unit_cell=conventional occupancy="_JSON {\"0\": {\"Al\": 1}, \"1\": {\"Al\": 1}, \"2\": {\"N\": 1}, \"3\": {\"N\": 1}}" energy=-29.62373924255371 free_energy=-29.62373924255371 stress="0.004300246946513653 -0.008672717027366161 0.0028820254374295473 -0.008672717027366161 -0.006943750660866499 -0.004434409085661173 0.0028820254374295473 -0.004434409085661173 -0.014838962815701962" pbc="T T T"
Al       1.54321208       0.89379621       2.53645984        0      -0.00705336      -0.41529120       0.79444782      -0.25250253       0.39302832      -0.87834632
Al       0.03580898       1.79893952       4.98957805        1       0.09337934      -0.29525103      -0.61191742      -0.16601238       0.14058116       0.62745619
N        1.59619757       0.90645091       4.40111850        2      -0.02189865       1.09350659       0.27120815      -0.08899701      -0.09593681       0.34911531
N       -0.05911263       1.83464207       1.91219265        3      -0.06442734      -0.38296439      -0.45373848       0.50751197      -0.43767291      -0.09822516
