4
Lattice="3.128588 0.0 0.0 -1.5642939988088433 2.709436998432005 0.0 0.0 0.0 5.016955" Properties=species:S:1:pos:R:3:spacegroup_kinds:I:1:forces:R:3 spacegroup="P 1" unit_cell=conventional occupancy="_JSON {\"0\": {\"Al\": 1}, \"1\": {\"Al\": 1}, \"2\": {\"N\": 1}, \"3\": {\"N\": 1}}" energy=-29.673717498779297 free_energy=-29.673717498779297 stress="-0.002225375734269619 -1.4034901596460259e-06 -5.187585916388571e-09 -1.4034901596460259e-06 -0.0022274847142398357 -1.2464753673668838e-08 -5.187585916388571e-09 -1.2464753673668838e-08 -0.005453766323626041" pbc="T T T"
Al       1.56429556       0.90314476       2.50490041        0      -0.00003506       0.00001933       0.00553145
Al      -0.00000156       1.80629224       5.01337791        1       0.00003500      -0.00002018       0.00552446
N        1.56429556       0.90314476       4.41849749        2      -0.00003687       0.00002031      -0.00553010
N       -0.00000156       1.80629224       1.91001999        3       0.00003685      -0.00001956      -0.00552561
