13
Lattice="7.26870274 0.0 0.0 3.634351370000001 6.294881225397555 0.0 3.634351370000001 2.0982937417991856 5.934870934989993" Properties=species:S:1:pos:R:3:spacegroup_kinds:I:1:forces:R:3 spacegroup="P 1" unit_cell=conventional occupancy="_JSON {\"0\": {\"Li\": 1}, \"1\": {\"Li\": 1}, \"2\": {\"Li\": 1}, \"3\": {\"Li\": 1}, \"4\": {\"Li\": 1}, \"5\": {\"Li\": 1}, \"6\": {\"P\": 1}, \"7\": {\"S\": 1}, \"8\": {\"S\": 1}, \"9\": {\"S\": 1}, \"10\": {\"S\": 1}, \"11\": {\"S\": 1}, \"12\": {\"Cl\": 1}}" energy=-53.3634147644043 free_energy=-53.3634147644043 stress="-0.0007942135562188923 -2.3525777237409784e-07 -1.6548391101878224e-07 -2.3525777237409784e-07 -0.0007939325296320021 -1.0601528543929817e-07 -1.6548391101878224e-07 -1.0601528543929817e-07 -0.0007939296774566174" pbc="T T T"
Li       9.25387995       7.24703237       3.10460814        0       0.00422527      -0.00243417       0.00344767
Li      12.55222827       5.34273008       5.79769826        1      -0.00421067       0.00243272      -0.00344098
Li       9.25387995       5.34273008       5.79769826        2       0.00422501       0.00243903      -0.00344701
Li      12.55222827       7.24703237       3.10460814        3      -0.00421254      -0.00243123       0.00344169
Li      10.90305411       4.39057894       3.10460814        4       0.00000263       0.00487624       0.00344858
Li      10.90305411       8.19918351       5.79769826        5       0.00000172      -0.00486380      -0.00344168
P        7.26870274       4.19658748       2.96743547        6       0.00008515       0.00004580       0.00003608
S        7.26870637       6.13578650       2.28182731        7      -0.00001825      -0.01090994       0.00384761
S        8.94810016       3.22699113       2.28182731        8      -0.00945789       0.00544058       0.00384701
S        5.58931258       3.22699113       2.28182731        9       0.00937816       0.00541345       0.00383029
S        7.26870637       4.19658958       5.02426588       10      -0.00001868      -0.00000933      -0.01157047
S       10.90305411       6.29488123       4.45115320       11      -0.00000142      -0.00000062       0.00000040
Cl       0.00000000       0.00000000       0.00000000       12       0.00000152       0.00000127       0.00000081
