32
Lattice="6.17176593 0.0 0.0 0.0 8.01859859 0.0 0.0 0.0 13.03281824" Properties=species:S:1:pos:R:3:spacegroup_kinds:I:1:momenta:R:3:forces:R:3 spacegroup="P 1" unit_cell=conventional occupancy="_JSON {\"0\": {\"Li\": 1}, \"1\": {\"Li\": 1}, \"2\": {\"Li\": 1}, \"3\": {\"Li\": 1}, \"4\": {\"Li\": 1}, \"5\": {\"Li\": 1}, \"6\": {\"Li\": 1}, \"7\": {\"Li\": 1}, \"8\": {\"Li\": 1}, \"9\": {\"Li\": 1}, \"10\": {\"Li\": 1}, \"11\": {\"Li\": 1}, \"12\": {\"P\": 1}, \"13\": {\"P\": 1}, \"14\": {\"P\": 1}, \"15\": {\"P\": 1}, \"16\": {\"S\": 1}, \"17\": {\"S\": 1}, \"18\": {\"S\": 1}, \"19\": {\"S\": 1}, \"20\": {\"S\": 1}, \"21\": {\"S\": 1}, \"22\": {\"S\": 1}, \"23\": {\"S\": 1}, \"24\": {\"S\": 1}, \"25\": {\"S\": 1}, \"26\": {\"S\": 1}, \"27\": {\"S\": 1}, \"28\": {\"S\": 1}, \"29\": {\"S\": 1}, \"30\": {\"S\": 1}, \"31\": {\"S\": 1}}" energy=-138.9255828857422 free_energy=-138.9255828857422 stress="-0.008063535206019878 -0.0005985945463180542 0.001679574023000896 -0.0005985945463180542 -0.013496913947165012 -0.004924837499856949 0.001679574023000896 -0.004924837499856949 -0.002620757557451725" pbc="T T T"
Li       2.59764390       0.12033945       4.40561817        0       0.47617989       0.38071418      -0.38374740      -0.02815712       0.18022691      -0.06374390
Li       3.68542494       7.81467942       8.74286819        1       0.89399581       0.13464061       0.55776657       0.67799670      -0.17850684       0.00608150
Li       5.58351024       7.66963289       2.05711488        2       0.24534599       0.51396020       0.26822983       0.13331699       0.17618465       0.11949736
Li       0.64167081       0.18455711      10.94430716        3      -0.65544903      -0.37769337       0.05304798       0.21450129       0.19849101      -0.04094068
Li       3.79205295       4.20239921       8.67905605        4       0.63388721       0.10193151       0.18843060      -0.04788975       0.06536509      -0.17866892
Li       2.18716704       3.80112281       4.69832886        5      -0.41215141      -0.20445514       0.49509695       0.11095771      -0.75441778      -0.42029554
Li       0.32408893       3.77616104      11.07417327        6       0.77838924      -0.32266555       0.06392441       0.35056502      -0.00767439      -0.24591956
Li       5.38178165       4.21971836       1.86630355        7       0.12893955      -0.36102738       0.25366046       0.32841522       0.15200175       0.50694883
Li       3.13700413       0.18845505      -0.12935432        8      -0.15833514       0.33330964      -0.00580780      -0.25071472       0.08608425       0.55447936
Li      -0.14292938       0.06146452       6.62725196        9       0.18885651      -0.49618795       0.14694792      -0.04687649      -0.00968259      -0.04970384
Li       3.05706803       4.00858422      -0.06349043       10       0.17782051      -0.18119475       0.20446023      -0.09533645       0.02461896      -0.06501589
Li      -0.33619780       3.82948314       6.64327949       11       0.73222900      -0.26362559      -0.18311977       0.15114720      -0.25266844       0.03913020
P        1.01628605       2.11878641       1.14365237       12      -0.86450431       0.83450224      -0.41325074       0.19583201      -0.87769771       1.22162712
P        5.00962193       6.03103311      11.90050259       13       1.60095656       0.80017005       0.83976072       1.27615762       1.78124237       1.01541102
P        4.22326260       5.91669315       5.32099891       14      -1.02703977      -0.61336770       1.17763507      -1.17437220       0.88313246      -0.65558028
P        2.10375411       1.92597092       7.73752245       15       0.78623405      -1.26766197       0.61430907       1.28422236       0.81181258      -1.53245258
S        5.16514612       2.03402595       1.28382245       16      -1.33243269       0.52945112      -0.34914547      -0.52913004      -0.55704576       0.02280506
S        0.91001611       6.00282673      11.80871486       17      -0.30614650      -0.96528755      -0.19607186      -0.30447152      -0.17091359      -0.00025433
S        2.14973512       5.96132387       5.13687597       18      -0.62134608       0.28126453      -0.80940482       0.20675451       0.49501598       0.38301891
S        4.23883878       2.03019976       7.73029211       19      -0.97722163      -0.37821904       2.21551765      -0.45795080      -0.27131212       0.14617305
S        1.54910017       2.13937737      12.20732259       20       1.10329541       1.78741557      -1.07339205       0.64350390      -0.66892493      -0.60893029
S        4.32304331       5.97953312       0.89199201       21       0.75855499       0.51111474       0.06344692      -0.08309044       0.38318270      -1.30837607
S        4.75413229       5.97550169       7.31296026       22      -0.09715965       1.07009639       0.09722724       0.33389872       0.10006860       0.31347698
S        1.40869227       1.68402492       5.74821203       23       0.40309094       0.89003225      -1.39320916       0.06791735       0.80112147       0.59474242
S        1.80263685       0.34914205       2.16333462       24       1.26820590      -0.73485051       0.15521324      -0.48846078       1.24614787      -1.33907247
S        4.50526168       7.89420294      11.05857267       25       0.72160697      -0.58454556      -0.30115874      -0.28905067      -0.62618887       0.02956733
S        4.92896767       7.64924398       4.42341506       26      -0.58801815       0.02436633      -0.67721128       0.16275346      -0.27298379       0.42761785
S        1.51588281       0.27998805       8.62243897       27      -0.17907698      -0.78677862      -1.33045129      -1.09401917      -1.23796856       0.74006343
S        4.27858247       4.46378230      10.96436364       28      -1.21619416      -1.23968938       0.13322783      -0.79249609      -1.05787492      -0.41856217
S        1.70827205       3.90299442       1.81951517       29      -1.35047046       0.78026494      -0.30403762      -0.16218881      -0.21556759       0.72982049
S        1.48269414       3.65041504       8.54563356       30      -0.16297524      -0.01103848      -0.94548036      -0.64517653       0.45619088       0.15136205
S        4.84752634       4.24336368       4.42652335       31      -0.94906732      -0.18494576       0.83758573       0.35144141      -0.68145967      -0.07430649
