32
Lattice="6.17176593 0.0 0.0 0.0 8.01859859 0.0 0.0 0.0 13.03281824" Properties=species:S:1:pos:R:3:spacegroup_kinds:I:1:momenta:R:3:forces:R:3 spacegroup="P 1" unit_cell=conventional occupancy="_JSON {\"0\": {\"Li\": 1}, \"1\": {\"Li\": 1}, \"2\": {\"Li\": 1}, \"3\": {\"Li\": 1}, \"4\": {\"Li\": 1}, \"5\": {\"Li\": 1}, \"6\": {\"Li\": 1}, \"7\": {\"Li\": 1}, \"8\": {\"Li\": 1}, \"9\": {\"Li\": 1}, \"10\": {\"Li\": 1}, \"11\": {\"Li\": 1}, \"12\": {\"P\": 1}, \"13\": {\"P\": 1}, \"14\": {\"P\": 1}, \"15\": {\"P\": 1}, \"16\": {\"S\": 1}, \"17\": {\"S\": 1}, \"18\": {\"S\": 1}, \"19\": {\"S\": 1}, \"20\": {\"S\": 1}, \"21\": {\"S\": 1}, \"22\": {\"S\": 1}, \"23\": {\"S\": 1}, \"24\": {\"S\": 1}, \"25\": {\"S\": 1}, \"26\": {\"S\": 1}, \"27\": {\"S\": 1}, \"28\": {\"S\": 1}, \"29\": {\"S\": 1}, \"30\": {\"S\": 1}, \"31\": {\"S\": 1}}" energy=-140.31869506835938 free_energy=-140.31869506835938 stress="-0.007170615252107382 -1.3165733392384027e-08 3.0005400386556857e-09 -1.3165733392384027e-08 -0.008259396068751812 -9.774934639494859e-09 3.0005400386556857e-09 -9.774934639494859e-09 -0.005266289692372084" pbc="T T T"
Li       2.40329652       0.26860172       4.33400832        0       0.00000000       0.00000000       0.00000000      -0.02603495       0.00549099      -0.00432094
Li       3.76846941       7.74999687       8.69880992        1       0.00000000       0.00000000       0.00000000       0.02603713      -0.00549283       0.00432299
Li       5.48917948       7.74999687       2.18240080        2       0.00000000       0.00000000       0.00000000      -0.02603605      -0.00549101       0.00432331
Li       0.68258645       0.26860172      10.85041744        3       0.00000000       0.00000000       0.00000000       0.02603535       0.00549199      -0.00431995
Li       3.76846941       4.27790102       8.69880992        4       0.00000000       0.00000000       0.00000000       0.02603626       0.00549163       0.00432284
Li       2.40329652       3.74069757       4.33400832        5       0.00000000       0.00000000       0.00000000      -0.02603542      -0.00549137      -0.00432090
Li       0.68258645       3.74069757      10.85041744        6       0.00000000       0.00000000       0.00000000       0.02603595      -0.00549223      -0.00431967
Li       5.48917948       4.27790102       2.18240080        7       0.00000000       0.00000000       0.00000000      -0.02603613       0.00549108       0.00432283
Li       3.08588297       0.00000000       0.00000000        8       0.00000000       0.00000000       0.00000000      -0.00000055      -0.00000054      -0.00000115
Li       0.00000000       0.00000000       6.51640912        9       0.00000000       0.00000000       0.00000000       0.00000012      -0.00000003      -0.00000059
Li       3.08588297       4.00929929       0.00000000       10       0.00000000       0.00000000       0.00000000      -0.00000071       0.00000227       0.00000052
Li       0.00000000       4.00929929       6.51640912       11       0.00000000       0.00000000       0.00000000       0.00000024       0.00000097      -0.00000001
P        0.94051010       2.00464965       1.16601784       12       0.00000000       0.00000000       0.00000000      -0.02067178       0.00000045       0.02376098
P        5.23125583       6.01394894      11.86680040       13       0.00000000       0.00000000       0.00000000       0.02066684       0.00000048      -0.02375943
P        4.02639307       6.01394894       5.35039128       14       0.00000000       0.00000000       0.00000000      -0.02066751       0.00000133      -0.02375631
P        2.14537286       2.00464965       7.68242696       15       0.00000000       0.00000000       0.00000000       0.02066848       0.00000054       0.02375712
S        5.08970823       2.00464965       1.30575389       16       0.00000000       0.00000000       0.00000000      -0.25450629      -0.00000009       0.01678933
S        1.08205770       6.01394894      11.72706435       17       0.00000000       0.00000000       0.00000000       0.25450680      -0.00000088      -0.01679167
S        2.00382526       6.01394894       5.21065523       18       0.00000000       0.00000000       0.00000000      -0.25450596      -0.00000076      -0.01679178
S        4.16794067       2.00464965       7.82216301       19       0.00000000       0.00000000       0.00000000       0.25450087      -0.00000047       0.01679017
S        1.68132889       2.00464965      12.25955363       20       0.00000000       0.00000000       0.00000000       0.10912248       0.00000038      -0.16719595
S        4.49043704       6.01394894       0.77326461       21       0.00000000       0.00000000       0.00000000      -0.10912066       0.00000005       0.16718167
S        4.76721186       6.01394894       7.28967373       22       0.00000000       0.00000000       0.00000000       0.10912084      -0.00000012       0.16717958
S        1.40455407       2.00464965       5.74314451       23       0.00000000       0.00000000       0.00000000      -0.10911965       0.00000028      -0.16718081
S        1.67233151       0.29287049       2.00524453       24       0.00000000       0.00000000       0.00000000       0.13957782      -0.21272638       0.08709884
S        4.49943442       7.72572810      11.02757371       25       0.00000000       0.00000000       0.00000000      -0.13957500       0.21272421      -0.08709340
S        4.75821447       7.72572810       4.51116459       26       0.00000000       0.00000000       0.00000000       0.13957526       0.21272463      -0.08709244
S        1.41355146       0.29287049       8.52165365       27       0.00000000       0.00000000       0.00000000      -0.13957578      -0.21272066       0.08709142
S        4.49943442       4.30216979      11.02757371       28       0.00000000       0.00000000       0.00000000      -0.13957763      -0.21272507      -0.08709358
S        1.67233151       3.71642880       2.00524453       29       0.00000000       0.00000000       0.00000000       0.13957857       0.21272597       0.08709919
S        1.41355146       3.71642880       8.52165365       30       0.00000000       0.00000000       0.00000000      -0.13957575       0.21272108       0.08709086
S        4.75821447       4.30216979       4.51116459       31       0.00000000       0.00000000       0.00000000       0.13957664      -0.21272579      -0.08709313
32
Lattice="6.17176593 0.0 0.0 0.0 8.01859859 0.0 0.0 0.0 13.03281824" Properties=species:S:1:pos:R:3:spacegroup_kinds:I:1:momenta:R:3:forces:R:3 spacegroup="P 1" unit_cell=conventional occupancy="_JSON {\"0\": {\"Li\": 1}, \"1\": {\"Li\": 1}, \"2\": {\"Li\": 1}, \"3\": {\"Li\": 1}, \"4\": {\"Li\": 1}, \"5\": {\"Li\": 1}, \"6\": {\"Li\": 1}, \"7\": {\"Li\": 1}, \"8\": {\"Li\": 1}, \"9\": {\"Li\": 1}, \"10\": {\"Li\": 1}, \"11\": {\"Li\": 1}, \"12\": {\"P\": 1}, \"13\": {\"P\": 1}, \"14\": {\"P\": 1}, \"15\": {\"P\": 1}, \"16\": {\"S\": 1}, \"17\": {\"S\": 1}, \"18\": {\"S\": 1}, \"19\": {\"S\": 1}, \"20\": {\"S\": 1}, \"21\": {\"S\": 1}, \"22\": {\"S\": 1}, \"23\": {\"S\": 1}, \"24\": {\"S\": 1}, \"25\": {\"S\": 1}, \"26\": {\"S\": 1}, \"27\": {\"S\": 1}, \"28\": {\"S\": 1}, \"29\": {\"S\": 1}, \"30\": {\"S\": 1}, \"31\": {\"S\": 1}}" energy=-139.96873474121094 free_energy=-139.96873474121094 stress="-0.0008915959624573588 0.0006448696367442608 -0.0010676258243620396 0.0006448696367442608 -0.003651589620858431 0.00018047056801151484 -0.0010676258243620396 0.00018047056801151484 -0.0032640458084642887" pbc="T T T"
Li       2.41051380       0.17174967       4.39524250        0       0.36416982       0.21150854       0.12768598      -0.05639905       0.27986303      -0.10418373
Li       3.82715121       7.69467127       8.68519322        1      -0.04708161       0.36135472       0.09144313      -0.25431368       0.27207786      -0.25668061
Li       5.42014775       7.85831685       2.13093958        2      -0.24702741       0.17583431       0.22189606      -0.08532800      -0.25523999       0.00059413
Li       0.77184414       0.27200423      10.89151920        3      -0.03181195      -0.40702040      -0.39278530      -0.23881216      -0.02492485      -0.12809694
Li       3.67822910       4.42402337       8.73293716        4      -0.17177609       0.05514960      -0.37887274       0.14726669      -0.09774108      -0.02818682
Li       2.47035897       3.75767313       4.36018258        5       0.17516035      -0.20808948       0.27948262      -0.09571121      -0.16938670       0.04193204
Li       0.81540203       3.92771868      10.79523377        6       0.43423987       0.22939356       0.10263620       0.00317756      -0.22466719       0.13147056
Li       5.45854602       4.30568891       2.09144204        7      -0.12136452      -0.19837535       0.15044221       0.22604144       0.03103782       0.25411856
Li       3.14823615       0.02589370       0.02615894        8       0.13029410       0.06099842      -0.10603087      -0.06778407      -0.00794697      -0.03813771
Li       0.01928130       0.10509325       6.42548193        9       0.30257741       0.07468100      -0.03790540      -0.04419093      -0.14856777       0.33098555
Li       3.24491715       3.96713435       0.08707984       10       0.24545312      -0.22476866       0.09961961      -0.19831941      -0.22441655      -0.01551212
Li      -0.04810553       4.05282878       6.53481112       11      -0.13693054       0.12505974      -0.33996444       0.00115912      -0.04922787       0.04284446
P        0.89152370       1.98480691       1.14882899       12      -0.19759386       0.76007702      -0.62736795       0.51646227       0.56555289       0.44311795
P        5.22072840       5.98269159      11.78429617       13      -0.91816687      -0.40507817      -0.01437263      -0.05927943      -0.04390534       0.23374869
P        4.05489249       6.02259726       5.30860551       14      -0.31918631      -0.51717286      -0.44377115       0.02548805      -0.47293320       0.35855430
P        2.17254927       2.05506927       7.71917577       15       0.02319844       0.57670065       0.64859666      -0.01048501      -1.01053643       0.40187249
S        5.02732798       2.08439808       1.32070705       16       0.04018553       0.65648333       0.62642129      -0.17539462      -0.21996129      -0.19712541
S        1.08078821       6.10611130      11.80468730       17       0.38065768       1.11437958       0.18354324       0.06666023      -0.25163686      -0.09072290
S        2.01789153       5.99298811       5.20162783       18       0.09950885       0.16792467      -0.48509173      -0.02264595      -0.03687838      -0.09019560
S        4.21890949       2.03706204       7.91047337       19      -0.24684522      -0.23985773       0.97427819      -0.43639901       0.13530910      -0.10692023
S        1.67522873       1.95751053      12.25234191       20      -0.63891896      -0.28303145       0.98568248       0.02091207       0.35203665       0.15413754
S        4.46551794       5.94163578       0.71479868       21       0.20844727      -0.62084332      -2.33744910      -0.04982623       0.54449141      -0.03679715
S        4.74163826       6.06666435       7.28495604       22       0.16316949       0.59606811      -0.64776816       0.22354326      -0.17491144      -0.29264376
S        1.37195624       1.99373993       5.78830466       23       0.29223097      -0.09668547       0.25043879       0.28931287       0.12988874      -0.14423169
S        1.57975760       0.28107932       2.04244931       24       0.12986608      -0.61085317       0.57642156       0.15832919      -0.22788841      -0.05669197
S        4.45340214       7.64015952      10.87592780       25       0.31484806      -1.15166540      -0.10070521       0.09625433       0.14539276       0.57451653
S        4.80411256       7.72051993       4.47452974       26      -0.69159885       0.20409039      -0.33680143      -0.00743198       0.25148281      -0.19707078
S        1.41998450       0.27624236       8.60966739       27      -0.05092622       0.03561939       0.62459296       0.27407938       0.73363531      -0.58276784
S        4.54386846       4.21166823      10.99282733       28       0.36827039       0.40104541       0.05101107       0.10693345       0.04401484      -0.05681793
S        1.68586329       3.67867297       2.09376922       29      -0.35116590      -0.35425381       0.43870365      -0.21289720      -0.24802476      -0.58090764
S        1.38277389       3.77802666       8.48849078       30       0.23223570       0.30609224      -0.68601941      -0.00165800       0.10832649       0.06947296
S        4.82960229       4.27335136       4.51049462       31       0.26588120      -0.79476540       0.50200993      -0.13874404       0.29568526      -0.03367483
32
Lattice="6.17176593 0.0 0.0 0.0 8.01859859 0.0 0.0 0.0 13.03281824" Properties=species:S:1:pos:R:3:spacegroup_kinds:I:1:momenta:R:3:forces:R:3 spacegroup="P 1" unit_cell=conventional occupancy="_JSON {\"0\": {\"Li\": 1}, \"1\": {\"Li\": 1}, \"2\": {\"Li\": 1}, \"3\": {\"Li\": 1}, \"4\": {\"Li\": 1}, \"5\": {\"Li\": 1}, \"6\": {\"Li\": 1}, \"7\": {\"Li\": 1}, \"8\": {\"Li\": 1}, \"9\": {\"Li\": 1}, \"10\": {\"Li\": 1}, \"11\": {\"Li\": 1}, \"12\": {\"P\": 1}, \"13\": {\"P\": 1}, \"14\": {\"P\": 1}, \"15\": {\"P\": 1}, \"16\": {\"S\": 1}, \"17\": {\"S\": 1}, \"18\": {\"S\": 1}, \"19\": {\"S\": 1}, \"20\": {\"S\": 1}, \"21\": {\"S\": 1}, \"22\": {\"S\": 1}, \"23\": {\"S\": 1}, \"24\": {\"S\": 1}, \"25\": {\"S\": 1}, \"26\": {\"S\": 1}, \"27\": {\"S\": 1}, \"28\": {\"S\": 1}, \"29\": {\"S\": 1}, \"30\": {\"S\": 1}, \"31\": {\"S\": 1}}" energy=-139.6158905029297 free_energy=-139.6158905029297 stress="-0.002778659574687481 0.00011569057096494362 -0.0012936503626406193 0.00011569057096494362 -0.010099118575453758 0.0020028422586619854 -0.0012936503626406193 0.0020028422586619854 -0.004598971921950579" pbc="T T T"
Li       2.31743165       0.37404091       4.34746677        0      -0.45755046       0.01951795      -0.04608537       0.29984289      -0.24868420       0.10025077
Li       3.85744144       7.84168545       8.45836318        1       0.49450244      -0.06978650      -0.13163738      -0.11889334      -0.14872217       0.25724834
Li       5.26385056       7.82270090       2.16685346        2      -0.40034712      -0.20369409      -0.24544330      -0.04545662      -0.08092707      -0.06432719
Li       0.49639472       0.31350493      10.96221061        3      -0.12646480       0.78537077       0.16692910       0.26315239       0.08997024      -0.10086904
Li       3.78378460       4.42392962       8.65297322        4       0.52239910      -0.19558392       0.28835352       0.01772300      -0.10492749      -0.03970667
Li       2.32841041       3.65380692       4.40402199        5      -0.35430623       0.08418696      -0.04168841       0.20960483       0.15577924      -0.08071296
Li       0.93726350       3.87740737      10.85561020        6      -0.58525604      -0.36775966      -0.04954143      -0.14201704      -0.19526610       0.02051593
Li       5.42052023       4.37089993       2.16930662        7      -0.15164745       0.30365609      -0.41154615      -0.00713558       0.02926878      -0.17842484
Li       2.97917308       0.13893029       0.07731032        8      -0.20334873       0.24850829       0.11189196       0.30475646      -0.35022771      -0.22040305
Li       0.14554917      -0.10553386       6.51257229        9      -0.11064000      -0.56345697       0.00574629      -0.05581660       0.07114629      -0.06438594
Li       3.28829193       3.66765038      -0.07012143       10       0.13825956       0.17324555      -0.09266436       0.10745923       0.14959154       0.13380909
Li       0.02392402       4.11936638       6.62203447       11       0.29698974      -0.25226950       0.11270819      -0.00718496      -0.12944046      -0.13505897
P        0.92314213       1.94116908       1.33504272       12       0.49258315      -0.48888461       0.61793883      -1.03696537       2.09659052      -1.93326354
P        5.18306747       6.02203766      11.73559706       13      -1.58608429      -0.45710678       0.10378217      -0.41129953       0.19699000       0.47272354
P        4.06257045       5.88781494       5.25536504       14       0.77668537      -0.45404588      -0.52372845       0.80066955       0.77824998       0.51800674
P        2.16761557       2.01650914       7.76464291       15      -0.54922838       0.77714971      -0.91612803       1.09757912      -0.25145513       0.34850734
S        5.01230208       2.11138090       1.26534254       16      -0.39916862       0.42554341      -0.66723346       0.31527242      -0.45372942       0.20849898
S        1.04774553       6.07503033      11.76693444       17       0.10955722      -1.25111773       0.44301920      -0.07713416       0.12956582       0.00292543
S        2.08505753       5.99719850       5.10347535       18       0.09141188      -0.84146163      -1.46462196      -1.02319241      -0.39954937       0.01510274
S        4.25877352       2.06944898       7.95612753       19       0.31588337       0.57778934      -0.40797507      -0.67065972       0.10251363      -0.15595368
S        1.68373668       1.93178281      12.31558456       20       0.72607217      -0.18953400       0.27700060      -0.31139418       0.19689901       0.62601334
S        4.32373940       6.04385480       0.66074505       21      -0.63546803       0.96257270       1.13573968       0.18431261      -0.03962731      -0.26679364
S        4.84360126       6.06058201       7.23224548       22       0.50138996      -0.46474520      -0.44330788      -0.14099921      -0.34203511      -0.17854044
S        1.50953753       1.99166709       5.83528926       23       1.02408936       0.34390709       0.43419842      -0.46442330      -0.05522522      -0.50977218
S        1.54342840       0.29024900       2.12658773       24      -0.48341915       0.42954137       0.82211595       0.48349169      -1.70606554       0.68008089
S        4.40793846       7.74208057      10.88293373       25      -1.16547952       1.95491560      -0.43422140      -0.04459868      -0.38769859       0.17658257
S        4.70458380       7.67331789       4.49609504       26      -0.40041441      -0.86021818       0.93837984       0.44848600       0.37996441      -0.28601098
S        1.41774723       0.30927210       8.61556936       27       0.36569712      -0.46233166       0.32432514       0.09042446       0.05540404      -0.04736623
S        4.56282704       4.25101708      10.88621841       28      -0.08720922      -0.02657493      -1.29746178       0.12874594       0.13820876       0.19215003
S        1.59603639       3.68553251       2.12306636       29       0.86763677       0.08809812       0.64131414       0.36589545       0.09825357      -0.00558526
S        1.46021504       3.76707486       8.49083886       30      -0.31461988      -0.36494265       1.31755429      -0.22592779       0.42473602       0.40865153
S        4.92606638       4.22599004       4.48223662       31       1.28749513       0.33951101      -0.56771274      -0.33431751      -0.19955090       0.10610683
32
Lattice="6.17176593 0.0 0.0 0.0 8.01859859 0.0 0.0 0.0 13.03281824" Properties=species:S:1:pos:R:3:spacegroup_kinds:I:1:momenta:R:3:forces:R:3 spacegroup="P 1" unit_cell=conventional occupancy="_JSON {\"0\": {\"Li\": 1}, \"1\": {\"Li\": 1}, \"2\": {\"Li\": 1}, \"3\": {\"Li\": 1}, \"4\": {\"Li\": 1}, \"5\": {\"Li\": 1}, \"6\": {\"Li\": 1}, \"7\": {\"Li\": 1}, \"8\": {\"Li\": 1}, \"9\": {\"Li\": 1}, \"10\": {\"Li\": 1}, \"11\": {\"Li\": 1}, \"12\": {\"P\": 1}, \"13\": {\"P\": 1}, \"14\": {\"P\": 1}, \"15\": {\"P\": 1}, \"16\": {\"S\": 1}, \"17\": {\"S\": 1}, \"18\": {\"S\": 1}, \"19\": {\"S\": 1}, \"20\": {\"S\": 1}, \"21\": {\"S\": 1}, \"22\": {\"S\": 1}, \"23\": {\"S\": 1}, \"24\": {\"S\": 1}, \"25\": {\"S\": 1}, \"26\": {\"S\": 1}, \"27\": {\"S\": 1}, \"28\": {\"S\": 1}, \"29\": {\"S\": 1}, \"30\": {\"S\": 1}, \"31\": {\"S\": 1}}" energy=-139.37722778320312 free_energy=-139.37722778320312 stress="-0.01387289073318243 0.0006617925246246159 -0.0008672909461893141 0.0006617925246246159 -0.006209852173924446 0.001530096516944468 -0.0008672909461893141 0.001530096516944468 -0.007080183830112219" pbc="T T T"
Li       2.44513504       0.18803760       4.47427885        0       0.50090503       0.08690756       0.18720196       0.12259623       0.08701657      -0.07892259
Li       3.75185315       7.64991924       8.67408797        1      -0.40273969      -0.03668359       0.66012289       0.47778204      -0.02827707      -0.34752771
Li       5.22200933       7.78925011       2.26290245        2       0.66357658      -0.28107545      -0.13632597       0.29004014       0.05084534      -0.36616498
Li       0.45039863       0.30240899      10.84510160        3      -0.28892841      -1.04168917      -0.77333431       0.41005418       0.03617282       0.08614030
Li       3.65083611       4.31503156       8.59606616        4      -0.42821438       0.23704324       0.04105876       0.32711226       0.16063285       0.10803801
Li       2.61505612       3.64494494       4.31410101        5       0.48443920      -0.78180727       0.30463174      -0.13793360      -0.18433627      -0.03909041
Li       0.58586838       3.62256618      10.89930797        6       0.24991327      -0.42598640       0.26194060       0.11962523       0.14707461       0.06515672
Li       5.44437148       4.47828035       1.93231533        7       0.33252815       0.35085826       0.63703768       0.21410027      -0.17056546       0.22851983
Li       3.22344132       0.14765143       0.14682266        8       0.10946805       0.10434538       0.14411066      -0.30497780       0.36371750      -0.03553225
Li       0.02331328       0.00182959       6.62449711        9      -0.13020197       0.65295862       0.25259996      -0.03459829       0.04001737      -0.10292491
Li       3.18987228       3.99319031       0.10471744       10      -0.74998258       0.26672037      -0.13567503      -0.01938622      -0.18739338      -0.30586976
Li       0.00301447       3.85268544       6.45188672       11       0.13891580      -0.71002231      -0.04590073       0.10391613       0.01504677       0.31129780
P        0.93518035       1.99524802       1.21191040       12       0.49531476      -1.50562848       1.60988615      -0.41976258      -0.53084058       1.09325910
P        5.08676462       6.19724079      11.77596246       13      -0.35956623       0.42689280       0.81129560      -1.00340855      -2.41383696       0.11364345
P        4.12109089       5.88683666       5.25230812       14      -0.12745743       0.65668349      -0.51178379       0.52548403       0.54111922      -0.11441710
P        2.17264652       2.01905919       7.80055179       15      -1.38008175       0.98166160      -1.14282631       0.42196983       0.56914604      -0.54592377
S        5.03592438       2.04772200       1.32022787       16      -0.63293371      -0.43865534       0.00134728       0.06941825       0.13368751      -0.11676897
S        0.83680192       5.99872487      11.83842110       17      -0.73770529       0.67863609       0.38909888       2.13699245       0.49199528       0.02379558
S        2.11899148       5.89207405       4.99042229       18       1.51472228      -0.93767324       1.53162858      -0.20816201      -0.09514881       0.15415420
S        4.20914131       2.11920003       7.84039717       19       0.51405899      -0.63472452      -0.88748900       0.15932037      -0.31967738       0.14002237
S        1.66516960       1.93093161      12.36497217       20       0.21889578       0.12135938      -1.06523647       0.25645226      -0.07905865      -1.03822756
S        4.21614548       6.13888287       0.64219529       21      -1.01181111      -1.25598112      -1.24966216       0.06520139      -0.12950915       0.47571707
S        4.81985668       5.98276651       7.20992226       22       0.14837275      -1.01036974       0.18226315      -0.04424509      -0.13547505       0.18725397
S        1.52144555       1.97085775       5.79108513       23      -0.31058454      -0.22159544      -0.03830296      -0.25392717      -0.04201741       0.45121759
S        1.58801040       0.30895938       2.21644424       24      -0.44131442       1.91865082      -1.43391520      -0.14787363       0.09870461      -0.49435741
S        4.32873294       7.77915001      10.89875145       25       0.23238451       0.88578319       0.29376153      -0.49591658       1.38843322      -0.21587887
S        4.89312484       7.67392591       4.48659576       26       2.40401312       0.76826718       0.10980969      -0.23532042      -0.33373666       0.49964356
S        1.60661127       0.27714489       8.67124368       27       0.93643907      -0.42675559       1.00668488      -0.99886966      -0.16583908       0.01262478
S        4.53646309       4.38423978      10.86348562       28      -1.78511996       1.00993418       0.04223790      -0.72387099       0.26055604       0.35945314
S        1.71418346       3.68344452       2.02622981       29       0.92176989       0.63528470      -1.47691794      -0.11034994       0.51095295       0.16920666
S        1.39718162       3.75049816       8.62622313       30      -0.68915422      -0.52835253       0.27738138      -0.28942072      -0.41985744      -0.34066722
S        4.96602901       4.17395758       4.46478520       31      -0.38992164       0.45501340       0.15327073      -0.27204213       0.34045106      -0.33687058
32
Lattice="6.17176593 0.0 0.0 0.0 8.01859859 0.0 0.0 0.0 13.03281824" Properties=species:S:1:pos:R:3:spacegroup_kinds:I:1:momenta:R:3:forces:R:3 spacegroup="P 1" unit_cell=conventional occupancy="_JSON {\"0\": {\"Li\": 1}, \"1\": {\"Li\": 1}, \"2\": {\"Li\": 1}, \"3\": {\"Li\": 1}, \"4\": {\"Li\": 1}, \"5\": {\"Li\": 1}, \"6\": {\"Li\": 1}, \"7\": {\"Li\": 1}, \"8\": {\"Li\": 1}, \"9\": {\"Li\": 1}, \"10\": {\"Li\": 1}, \"11\": {\"Li\": 1}, \"12\": {\"P\": 1}, \"13\": {\"P\": 1}, \"14\": {\"P\": 1}, \"15\": {\"P\": 1}, \"16\": {\"S\": 1}, \"17\": {\"S\": 1}, \"18\": {\"S\": 1}, \"19\": {\"S\": 1}, \"20\": {\"S\": 1}, \"21\": {\"S\": 1}, \"22\": {\"S\": 1}, \"23\": {\"S\": 1}, \"24\": {\"S\": 1}, \"25\": {\"S\": 1}, \"26\": {\"S\": 1}, \"27\": {\"S\": 1}, \"28\": {\"S\": 1}, \"29\": {\"S\": 1}, \"30\": {\"S\": 1}, \"31\": {\"S\": 1}}" energy=-139.01295471191406 free_energy=-139.01295471191406 stress="-0.003411324927583337 0.00035008604754693806 0.001603724085725844 0.00035008604754693806 -0.004286386072635651 0.001886250451207161 0.001603724085725844 0.001886250451207161 -0.005983538459986448" pbc="T T T"
Li       2.63687608       0.26687738       4.51070801        0      -0.22551998      -0.27405224      -0.04643880      -0.09852476      -0.21116146      -0.11235164
Li       3.97596565       7.61373783       8.55598797        1      -0.15240468       0.07345180      -0.37940030      -0.44857910       0.26649791       0.43862778
Li       5.55182775       7.76118804       2.08764810        2       0.20290884       0.04834744      -0.00958418      -0.14798374      -0.19651257       0.07735226
Li       0.76569695       0.18937491      10.92970135        3       0.65279027       0.21147202       0.54760103      -0.17643869       0.08900087      -0.01319849
Li       3.65570836       4.29501445       8.61016503        4      -0.22967319      -0.30842483      -0.54827114      -0.07255726       0.04282224       0.13141246
Li       2.46337470       3.49083855       4.09025063        5      -0.27328049       0.47320639       0.22023894       0.13910618       0.19639269       0.68465137
Li       0.50815985       3.66509007      11.14327311        6      -0.47894508       0.62754371      -0.02467333      -0.17937785       0.20203239      -0.34204844
Li       5.79962281       4.51526968       2.27975172        7      -0.32359283      -0.34069321      -0.23374636      -0.38368747       0.11862329      -0.28735012
Li       3.00306390       0.27219772       0.21430993        8      -0.37076046      -0.27950887      -0.07587107       0.38681105      -0.47696358      -0.08889340
Li      -0.29260976       0.30041249       6.83896794        9      -0.22449709       0.31475275      -0.32537962       0.27768275      -0.13900372      -0.37926960
Li       2.98508203       3.88754713      -0.21422748       10       0.36728358       0.17527193      -0.18043213       0.17554137       0.22233596       0.26890671
Li      -0.38426111       3.62600266       6.80313022       11      -0.83382015       0.10952851       0.33015760       0.35387617       0.22065383      -0.37993219
P        0.90107535       2.09155291       1.20602286       12       1.43350578      -0.04383700      -0.07721612       1.41054964      -1.65513790       0.38021901
P        5.04697719       6.17640173      11.79631674       13       0.19287240       1.81958130       0.86067837      -0.41987258      -1.27837479       0.64999056
P        4.20815571       5.94939117       5.25561428       14      -0.25730721      -0.39365608       0.44165926      -0.58972895       0.36551893      -0.14482504
P        2.21120607       1.97875867       7.73480515       15       0.27346353      -0.17684599      -0.83080496      -0.82171381       1.40638077      -0.89492685
S        5.09302490       1.99562658       1.31353629       16       1.27777691       0.13149718      -0.12390255      -0.44294930       0.52062541       0.08503217
S        0.91088328       6.04463392      11.84148808       17      -1.11279262      -0.62564368      -0.80179147      -0.14556569      -0.14109913      -0.11827381
S        2.17683589       5.89761585       5.15392619       18       0.39517181       0.83299171       0.79957553       0.22247408       0.20719881      -0.20453480