4
Lattice="3.128588 0.0 0.0 -1.5642939988088433 2.709436998432005 0.0 0.0 0.0 5.016955" Properties=species:S:1:pos:R:3:spacegroup_kinds:I:1:momenta:R:3:forces:R:3 spacegroup="P 1" unit_cell=conventional occupancy="_JSON {\"0\": {\"Al\": 1}, \"1\": {\"Al\": 1}, \"2\": {\"N\": 1}, \"3\": {\"N\": 1}}" energy=-29.623743057250977 free_energy=-29.623743057250977 stress="0.004300405271351337 -0.008672608993947506 0.0028819653671234846 -0.008672608993947506 -0.006943742278963327 -0.004434523638337851 0.0028819653671234846 -0.004434523638337851 -0.014839050360023975" pbc="T T T"
Al       1.54321203       0.89379623       2.53645983        0      -0.00705470      -0.41529089       0.79445109      -0.25250033       0.39302796      -0.87834728
Al       0.03580898       1.79893951       4.98957806        1       0.09337907      -0.29525113      -0.61192049      -0.16601306       0.14058258       0.62745672
N        1.59619753       0.90645093       4.40111850        2      -0.02189789       1.09350637       0.27120858      -0.08899546      -0.09593797       0.34911448
N       -0.05911256       1.83464209       1.91219266        3      -0.06442650      -0.38296434      -0.45373912       0.50750899      -0.43767238      -0.09822398
