4
Lattice="3.128588 0.0 0.0 -1.5642939988088433 2.709436998432005 0.0 0.0 0.0 5.016955" Properties=species:S:1:pos:R:3:spacegroup_kinds:I:1:momenta:R:3:forces:R:3 spacegroup="P 1" unit_cell=conventional occupancy="_JSON {\"0\": {\"Al\": 1}, \"1\": {\"Al\": 1}, \"2\": {\"N\": 1}, \"3\": {\"N\": 1}}" energy=-29.673717498779297 free_energy=-29.673717498779297 stress="-0.0022253957577049732 -1.3967345466880943e-06 -8.50682280173487e-09 -1.3967345466880943e-06 -0.002227336633950472 -6.225460680298056e-08 -8.50682280173487e-09 -6.225460680298056e-08 -0.00545368529856205" pbc="T T T"
Al       1.56429556       0.90314476       2.50490041        0       0.68448204       0.53670047       0.91071479      -0.00003576       0.00002021       0.00553127
Al      -0.00000156       1.80629224       5.01337791        1       0.31075784       0.39520501      -1.87833745       0.00003384      -0.00001921       0.00552450
N        1.56429556       0.90314476       4.41849749        2      -0.23293981      -0.79739853      -0.40745139      -0.00003572       0.00001990      -0.00553074
N       -0.00000156       1.80629224       1.91001999        3      -0.76230006      -0.13450696       1.37507406       0.00003761      -0.00002082      -0.00552477
4
Lattice="3.128588 0.0 0.0 -1.5642939988088433 2.709436998432005 0.0 0.0 0.0 5.016955" Properties=species:S:1:pos:R:3:spacegroup_kinds:I:1:momenta:R:3:forces:R:3 spacegroup="P 1" unit_cell=conventional occupancy="_JSON {\"0\": {\"Al\": 1}, \"1\": {\"Al\": 1}, \"2\": {\"N\": 1}, \"3\": {\"N\": 1}}" energy=-29.43359375 free_energy=-29.43359375 stress="-0.013773733749985695 -0.016446322202682495 0.012948821298778057 -0.016446322202682495 -0.023968929424881935 0.009969726204872131 0.012948821298778057 0.009969726204872131 -0.012059549801051617" pbc="T T T"
Al       1.60246141       0.92231284       2.54150849        0       0.57498197      -0.13491995       1.02882486      -1.31301355      -0.49033451      -0.87831438
Al       0.00328789       1.81111140       4.94718775        1      -0.44725811       0.00118058      -1.07867295      -0.30154160      -0.59423250       1.18011868
N        1.53678587       0.85870779       4.38099594        2       0.14052040      -0.46066730       0.20203864       0.28490806       0.67984474       1.25553536
N       -0.05228245       1.80432670       2.00436659        3      -0.26824431       0.59440662      -0.15219053       1.32964694       0.40472215      -1.55733943
4
Lattice="3.128588 0.0 0.0 -1.5642939988088433 2.709436998432005 0.0 0.0 0.0 5.016955" Properties=species:S:1:pos:R:3:spacegroup_kinds:I:1:momenta:R:3:forces:R:3 spacegroup="P 1" unit_cell=conventional occupancy="_JSON {\"0\": {\"Al\": 1}, \"1\": {\"Al\": 1}, \"2\": {\"N\": 1}, \"3\": {\"N\": 1}}" energy=-29.567256927490234 free_energy=-29.567256927490234 stress="0.012915636412799358 0.0017024644184857607 0.003579345066100359 0.0017024644184857607 -0.025857187807559967 -0.005369167309254408 0.003579345066100359 -0.005369167309254408 -0.01143536064773798" pbc="T T T"
Al       1.59598185       0.90138486       2.55101265        0      -0.85003974      -0.64755182      -0.41676314      -0.33522683       0.74370313      -1.26921368
Al      -0.01311800       1.79082858       4.96769659        1      -0.24557026      -0.74327781       1.65595801      -0.18280250      -0.17026839       1.21499658
N        1.52960409       0.86779351       4.41996341        2       0.16413071       0.60763562       0.63654574       0.31887686       0.39321443      -0.09056871
N       -0.00060095       1.87475189       1.90756517        3       0.93147928       0.78319399      -1.87574059       0.19915250      -0.96664906       0.14478570
4
Lattice="3.128588 0.0 0.0 -1.5642939988088433 2.709436998432005 0.0 0.0 0.0 5.016955" Properties=species:S:1:pos:R:3:spacegroup_kinds:I:1:momenta:R:3:forces:R:3 spacegroup="P 1" unit_cell=conventional occupancy="_JSON {\"0\": {\"Al\": 1}, \"1\": {\"Al\": 1}, \"2\": {\"N\": 1}, \"3\": {\"N\": 1}}" energy=-29.40627098083496 free_energy=-29.40627098083496 stress="0.01068881805986166 0.016498135402798653 -0.008164066821336746 0.016498135402798653 -0.009423277340829372 -0.015553897246718407 -0.008164066821336746 -0.015553897246718407 -0.061254095286130905" pbc="T T T"
Al       1.53423928       0.87298460       2.51007450        0      -1.60925380       0.09619214      -1.03262310       0.74608940       1.00298512       0.03482331
Al      -0.01349004       1.78470222       5.05709167        1       0.21561246      -0.04339810       1.72443265       0.02271615       0.40732741      -1.66436887
N        1.55208975       0.92225131       4.42203507        2       0.38659379       0.63935830      -0.93002952       0.04495400      -0.39009482      -0.56986046
N        0.09667396       1.88681819       1.81230438        3       1.00704754      -0.69215231       0.23821996      -0.81375945      -1.02021801       2.19940543
4
Lattice="3.128588 0.0 0.0 -1.5642939988088433 2.709436998432005 0.0 0.0 0.0 5.016955" Properties=species:S:1:pos:R:3:spacegroup_kinds:I:1:momenta:R:3:forces:R:3 spacegroup="P 1" unit_cell=conventional occupancy="_JSON {\"0\": {\"Al\": 1}, \"1\": {\"Al\": 1}, \"2\": {\"N\": 1}, \"3\": {\"N\": 1}}" energy=-29.201902389526367 free_energy=-29.201902389526367 stress="-0.026440974324941635 0.038155604153871536 -0.03138258680701256 0.038155604153871536 -0.004877244587987661 0.001543837715871632 -0.03138258680701256 0.001543837715871632 -0.05181979015469551" pbc="T T T"
Al       1.49382402       0.87740192       2.48150488        0      -0.08661637      -0.02748806       0.25595621       2.48428392      -0.46186802       1.22612047
Al      -0.02076736       1.79337851       5.08843296        1       0.00716740       0.60209074      -1.27068323       0.64723307       0.57433474      -2.36004186
N        1.60157222       0.96971684       4.33361319        2       0.49437264       0.53651035      -0.17473367      -0.53882623      -0.70145380       1.74608922
N        0.13924906       1.81421454       1.89535167        3      -0.41492359      -1.11111302       1.18946071      -2.59269142       0.58898693      -0.61216784
4
Lattice="3.128588 0.0 0.0 -1.5642939988088433 2.709436998432005 0.0 0.0 0.0 5.016955" Properties=species:S:1:pos:R:3:spacegroup_kinds:I:1:momenta:R:3:forces:R:3 spacegroup="P 1" unit_cell=conventional occupancy="_JSON {\"0\": {\"Al\": 1}, \"1\": {\"Al\": 1}, \"2\": {\"N\": 1}, \"3\": {\"N\": 1}}" energy=-29.574626922607422 free_energy=-29.574626922607422 stress="-0.023617809638381004 -0.01432123128324747 -0.011127917096018791 -0.01432123128324747 0.015030063688755035 -0.0028546173125505447 -0.011127917096018791 -0.0028546173125505447 -0.014440475963056087" pbc="T T T"
Al       1.53421962       0.88369269       2.53780583        0       1.55944024       0.36820869       1.55971043       0.29264346      -0.24000321      -0.91367531
Al      -0.00048006       1.82107764       4.98837342        1       1.01688579       0.86374315      -2.47525488       0.94369483       0.52251351       0.78486234
N        1.63583964       0.96584650       4.40663185        2      -0.31021916      -0.52489296       1.27117419      -1.15103650      -0.78906977       0.05687802
N       -0.01177521       1.75252282       1.90648728        3      -2.26610686      -0.70705889      -0.35562970      -0.08530185       0.50655961       0.07193509
4
Lattice="3.128588 0.0 0.0 -1.5642939988088433 2.709436998432005 0.0 0.0 0.0 5.016955" Properties=species:S:1:pos:R:3:spacegroup_kinds:I:1:momenta:R:3:forces:R:3 spacegroup="P 1" unit_cell=conventional occupancy="_JSON {\"0\": {\"Al\": 1}, \"1\": {\"Al\": 1}, \"2\": {\"N\": 1}, \"3\": {\"N\": 1}}" energy=-29.3720703125 free_energy=-29.3720703125 stress="-0.005629712715744972 -0.018719350919127464 0.01584947481751442 -0.018719350919127464 -0.03227302059531212 0.017212245613336563 0.01584947481751442 0.017212245613336563 -0.007298070937395096" pbc="T T T"
Al       1.57072833       0.88046441       2.56331976        0      -0.00039233      -0.37629482      -0.57844083      -1.34386408      -0.44065809      -1.50707722
Al       0.05055072       1.86456080       4.94968568        1       0.52727010       0.77034118       1.04960171      -0.49129027      -1.36433554       1.82584953
N        1.58204797       0.88176662       4.44992393        2      -0.27832238      -1.02263349      -0.55459302       0.15003712       1.16375983      -0.85894954
N       -0.12661083       1.75915455       1.88869865        3      -0.24855538       0.62858713       0.08343214       1.68511713       0.64123392       0.54017740
4
Lattice="3.128588 0.0 0.0 -1.5642939988088433 2.709436998432005 0.0 0.0 0.0 5.016955" Properties=species:S:1:pos:R:3:spacegroup_kinds:I:1:momenta:R:3:forces:R:3 spacegroup="P 1" unit_cell=conventional occupancy="_JSON {\"0\": {\"Al\": 1}, \"1\": {\"Al\": 1}, \"2\": {\"N\": 1}, \"3\": {\"N\": 1}}" energy=-29.596923828125 free_energy=-29.596923828125 stress="0.015976229682564735 -0.00450590206310153 0.00601867726072669 -0.00450590206310153 -0.02549932897090912 -0.004597149323672056 0.00601867726072669 -0.004597149323672056 -0.010014012455940247" pbc="T T T"
Al       1.53284806       0.86390066       2.51395077        0      -1.59464496      -0.16469652      -1.74991358      -0.27820501       0.89915884      -0.15420599
Al       0.06317841       1.83227864       5.00948377        1       0.38440007      -1.80666600       1.59449939      -0.58708292      -0.41271353       0.16725178
N        1.58572478       0.89623789       4.41422577        2       0.14193188       1.12964923      -0.09119166       0.25704023       0.38076410       0.00228118
N       -0.08152105       1.83862419       1.90381448        3       1.06831304       0.84171329       0.24660589       0.60824764      -0.86720955      -0.01532668
4
Lattice="3.128588 0.0 0.0 -1.5642939988088433 2.709436998432005 0.0 0.0 0.0 5.016955" Properties=species:S:1:pos:R:3:spacegroup_kinds:I:1:momenta:R:3:forces:R:3 spacegroup="P 1" unit_cell=conventional occupancy="_JSON {\"0\": {\"Al\": 1}, \"1\": {\"Al\": 1}, \"2\": {\"N\": 1}, \"3\": {\"N\": 1}}" energy=-29.462553024291992 free_energy=-29.462553024291992 stress="-0.005697102751582861 0.010849381797015667 -0.003906624391674995 0.010849381797015667 -0.019133908674120903 -0.012703138403594494 -0.003906624391674995 -0.012703138403594494 -0.011871381662786007" pbc="T T T"
Al       1.48347331       0.88264395       2.44527928        0      -0.30454484       1.01149527      -0.60004562       0.88392997       0.95768344       1.70776856
Al       0.06164410       1.77681259       5.07306070        1      -0.86715246      -0.75617382       0.43048963      -0.30080533       0.71655297      -1.72279859
N        1.61717710       0.94947184       4.40498426        2       0.38645851       0.04830063       0.18623291      -0.07234042      -0.67485976       0.48910645
N       -0.01486934       1.85626147       1.92266706        3       0.78523883      -0.30362211      -0.01667689      -0.51078421      -0.99937654      -0.47407627
4
Lattice="3.128588 0.0 0.0 -1.5642939988088433 2.709436998432005 0.0 0.0 0.0 5.016955" Properties=species:S:1:pos:R:3:spacegroup_kinds:I:1:momenta:R:3:forces:R:3 spacegroup="P 1" unit_cell=conventional occupancy="_JSON {\"0\": {\"Al\": 1}, \"1\": {\"Al\": 1}, \"2\": {\"N\": 1}, \"3\": {\"N\": 1}}" energy=-29.51875114440918 free_energy=-29.51875114440918 stress="-0.02337084710597992 0.006539956666529179 -0.016098270192742348 0.006539956666529179 0.006697372533380985 -0.000482445175293833 -0.016098270192742348 -0.000482445175293833 -0.02216132916510105" pbc="T T T"
Al       1.50607639       0.94974320       2.46463695        0       1.15921287       0.62635210       1.50689934       1.24247360      -0.60704488       1.15697384
Al       0.01335471       1.75088040       5.06242874        1      -0.91112005       0.14825247      -0.88962592       0.51474744       0.69610584      -1.43088889
N        1.62637957       0.90489618       4.42127858        2      -0.14223544      -0.64065055       0.21498392      -0.71771890      -0.51824188      -0.07984824
N        0.02538008       1.82158364       1.88963028        3      -0.10585739      -0.13395405      -0.83225729      -1.03950191       0.42918128       0.35376352
4
Lattice="3.128588 0.0 0.0 -1.5642939988088433 2.709436998432005 0.0 0.0 0.0 5.016955" Properties=species:S:1:pos:R:3:spacegroup_kinds:I:1:momenta:R:3:forces:R:3 spacegroup="P 1" unit_cell=conventional occupancy="_JSON {\"0\": {\"Al\": 1}, \"1\": {\"Al\": 1}, \"2\": {\"N\": 1}, \"3\": {\"N\": 1}}" energy=-29.60500717163086 free_energy=-29.60500717163086 stress="0.0015958485892042518 -0.006785754580050707 -0.003095477120950818 -0.006785754580050707 0.0017804148374125361 0.0017243190668523312 -0.003095477120950818 0.0017243190668523312 -0.023113654926419258" pbc="T T T"
Al       1.56693924       0.93861031       2.54470910        0       1.44875285      -0.98943836       1.48437433      -0.01659281      -0.29131582      -1.20300627
Al      -0.01304568       1.78057345       4.99752452        1       0.01689798       1.11024914      -1.70730006       0.38438725       0.02358162       0.50760365
N        1.58384202       0.87104970       4.42155575        2      -0.67927461      -0.02704893      -0.19037143      -0.39236945       0.15177983      -0.39792460
N        0.00122213       1.81989278       1.85992050        3      -0.78637622      -0.09376188       0.41329719       0.02457506       0.11595441       1.09332681
4
Lattice="3.128588 0.0 0.0 -1.5642939988088433 2.709436998432005 0.0 0.0 0.0 5.016955" Properties=species:S:1:pos:R:3:spacegroup_kinds:I:1:momenta:R:3:forces:R:3 spacegroup="P 1" unit_cell=conventional occupancy="_JSON {\"0\": {\"Al\": 1}, \"1\": {\"Al\": 1}, \"2\": {\"N\": 1}, \"3\": {\"N\": 1}}" energy=-29.470205307006836 free_energy=-29.470205307006836 stress="0.003203341504558921 -0.017801329493522644 0.01183837465941906 -0.017801329493522644 -0.0413489006459713 0.007359950337558985 0.01183837465941906 0.007359950337558985 -0.005160166881978512" pbc="T T T"
Al       1.62755626       0.89950079       2.54516753        0       1.04970781      -0.99981870      -0.80202922      -1.41064703       0.15933196      -0.91779196
Al      -0.00757057       1.81703570       4.95606286        1      -0.03757982       0.11959873      -0.16512771      -0.26242933      -0.84351504       1.41445804
N        1.52756234       0.85151204       4.42065483        2      -0.42752177       0.29023017      -0.07965797       0.31766063       0.98894584      -0.00115555
N       -0.06966664       1.84442113       1.93994533        3      -0.58460620       0.58998976       1.04681495       1.35541558      -0.30476278      -0.49551064
4
Lattice="3.128588 0.0 0.0 -1.5642939988088433 2.709436998432005 0.0 0.0 0.0 5.016955" Properties=species:S:1:pos:R:3:spacegroup_kinds:I:1:momenta:R:3:forces:R:3 spacegroup="P 1" unit_cell=conventional occupancy="_JSON {\"0\": {\"Al\": 1}, \"1\": {\"Al\": 1}, \"2\": {\"N\": 1}, \"3\": {\"N\": 1}}" energy=-29.452987670898438 free_energy=-29.452987670898438 stress="-0.013225341215729713 -0.023750150576233864 0.007911521010100842 -0.023750150576233864 -0.047931816428899765 -0.007333320565521717 0.007911521010100842 -0.007333320565521717 0.028632983565330505" pbc="T T T"
Al       1.63184039       0.85684031       2.46693549        0      -0.97589038      -0.55899532      -1.34838433      -1.39010251       1.11025727       1.17304015
Al      -0.02377744       1.82170280       4.98999599        1      -0.28018846       0.45883542       1.28013490      -0.08532585       0.08283333       0.34697247
N        1.52792700       0.92957746       4.44479005        2       0.11446484       0.97873205       0.08012621       0.22036114      -0.17398594       0.05599228
N       -0.04718870       1.83921500       2.00086013        3       1.14161394      -0.87857214      -0.01187681       1.25506723      -1.01910460      -1.57600498
4
Lattice="3.128588 0.0 0.0 -1.5642939988088433 2.709436998432005 0.0 0.0 0.0 5.016955" Properties=species:S:1:pos:R:3:spacegroup_kinds:I:1:momenta:R:3:forces:R:3 spacegroup="P 1" unit_cell=conventional occupancy="_JSON {\"0\": {\"Al\": 1}, \"1\": {\"Al\": 1}, \"2\": {\"N\": 1}, \"3\": {\"N\": 1}}" energy=-29.536317825317383 free_energy=-29.536317825317383 stress="-0.019857553765177727 0.013828884810209274 -0.0057173315435647964 0.013828884810209274 -0.0031638569198548794 -0.0016710003837943077 -0.0057173315435647964 -0.0016710003837943077 -0.00626034289598465" pbc="T T T"
Al       1.56291508       0.86348349       2.43836895        0      -1.44558795       0.38889085       0.34074938       0.67285788       0.11609417       1.45909560
Al      -0.01834142       1.83613135       5.05736568        1       0.19731492      -0.00921566       1.04742098       0.06595275       0.15003690      -1.19267154
N        1.54726699       0.95741145       4.47045645        2      -0.01023995       0.05685062       0.14844091       0.09761351      -0.44421077      -0.65174365
N        0.05576965       1.77068663       1.90062732        3       1.25851291      -0.43652580      -1.53661125      -0.83642423       0.17807958       0.38531998
4
Lattice="3.128588 0.0 0.0 -1.5642939988088433 2.709436998432005 0.0 0.0 0.0 5.016955" Properties=species:S:1:pos:R:3:spacegroup_kinds:I:1:momenta:R:3:forces:R:3 spacegroup="P 1" unit_cell=conventional occupancy="_JSON {\"0\": {\"Al\": 1}, \"1\": {\"Al\": 1}, \"2\": {\"N\": 1}, \"3\": {\"N\": 1}}" energy=-29.531002044677734 free_energy=-29.531002044677734 stress="-0.018294237554073334 0.015707524493336678 -0.011607741937041283 0.015707524493336678 0.0031478803139179945 0.004605576861649752 -0.011607741937041283 0.004605576861649752 -0.017258495092391968" pbc="T T T"
Al       1.54701077       0.87273545       2.46070913        0       0.71855773      -0.11584372       0.49435368       1.07476950      -0.28505772       1.06925368
Al      -0.01761628       1.84389392       5.05391118        1       0.19346434       0.17720429      -0.69190130       0.23187324      -0.07941455      -1.16825104
N        1.56395352       0.94331122       4.45961406        2       0.32487400      -0.12409400      -0.51346203      -0.11546879      -0.20503691      -0.72920454
N        0.06831347       1.75176766       1.87546339        3      -1.23689615       0.06273341       0.71100968      -1.19117403       0.56950915       0.82820123
4
Lattice="3.128588 0.0 0.0 -1.5642939988088433 2.709436998432005 0.0 0.0 0.0 5.016955" Properties=species:S:1:pos:R:3:spacegroup_kinds:I:1:momenta:R:3:forces:R:3 spacegroup="P 1" unit_cell=conventional occupancy="_JSON {\"0\": {\"Al\": 1}, \"1\": {\"Al\": 1}, \"2\": {\"N\": 1}, \"3\": {\"N\": 1}}" energy=-29.61321449279785 free_energy=-29.61321449279785 stress="-0.008381573483347893 -0.0042767273262143135 0.00549293402582407 -0.0042767273262143135 -0.013936947099864483 0.0014804825186729431 0.00549293402582407 0.0014804825186729431 0.012475423514842987" pbc="T T T"
Al       1.57767911       0.87033376       2.48321563        0       0.42145849      -0.10086042       0.75449458      -0.50599474       0.14215221       0.64868641
Al       0.00878682       1.84488740       5.00616578        1       0.94842516       0.04829705      -0.67234633      -0.28190905      -0.37569755       0.05942400
N        1.54733733       0.91884312       4.41695261        2      -0.50233610      -0.06173853      -0.86681731       0.26756731       0.16352502       0.34766698
N       -0.02491945       1.77881441       1.96659668        3      -0.86754761       0.11430187       0.78466908       0.52033663       0.07002018      -1.05577743
4
Lattice="3.128588 0.0 0.0 -1.5642939988088433 2.709436998432005 0.0 0.0 0.0 5.016955" Properties=species:S:1:pos:R:3:spacegroup_kinds:I:1:momenta:R:3:forces:R:3 spacegroup="P 1" unit_cell=conventional occupancy="_JSON {\"0\": {\"Al\": 1}, \"1\": {\"Al\": 1}, \"2\": {\"N\": 1}, \"3\": {\"N\": 1}}" energy=-29.557838439941406 free_energy=-29.557838439941406 stress="-0.01636386103928089 -0.0029475281480699778 0.012903631664812565 -0.0029475281480699778 -0.00620736088603735 0.0015375145012512803 0.012903631664812565 0.0015375145012512803 -0.002714507281780243" pbc="T T T"
Al       1.59068813       0.88023427       2.52274588        0      -0.41625625       0.17887065       0.33160861      -0.90884227      -0.14030720      -0.36867881
Al       0.01872290       1.83477379       4.97781993        1       0.14973916      -0.20763007      -0.17578514      -0.72829652      -0.10046298       0.72652566
N        1.52039168       0.92489994       4.39464373        2       0.19754424       0.25939851       0.47781767       0.72475982      -0.09604979       0.71574187
N       -0.04216861       1.77342025       1.96745697        3       0.06897275      -0.23063911      -0.63364107       0.91237909       0.33681995      -1.07358861
4
Lattice="3.128588 0.0 0.0 -1.5642939988088433 2.709436998432005 0.0 0.0 0.0 5.016955" Properties=species:S:1:pos:R:3:spacegroup_kinds:I:1:momenta:R:3:forces:R:3 spacegroup="P 1" unit_cell=conventional occupancy="_JSON {\"0\": {\"Al\": 1}, \"1\": {\"Al\": 1}, \"2\": {\"N\": 1}, \"3\": {\"N\": 1}}" energy=-29.621110916137695 free_energy=-29.621110916137695 stress="-0.021500645205378532 0.005276366602629423 -0.0032673757523298264 0.005276366602629423 0.01065768301486969 0.0019248927710577846 -0.0032673757523298264 0.0019248927710577846 -0.001589826075360179" pbc="T T T"
Al       1.54767650       0.89587762       2.50832860        0      -0.85809953       0.46896539      -1.00003137       0.39160293      -0.39028984      -0.15032777
Al       0.00665799       1.82067518       5.00342496        1      -0.72966962      -0.11082659       1.46536785      -0.00949579       0.22696862       0.34863061
N        1.57185932       0.94293295       4.45440722        2       0.62349860      -0.37686519       0.64593248      -0.01970090      -0.43335205      -0.83890033
N        0.01256034       1.75229417       1.88600532        3       0.96427046       0.01872636      -1.11126893      -0.36240637       0.59667337       0.64059770
4
Lattice="3.128588 0.0 0.0 -1.5642939988088433 2.709436998432005 0.0 0.0 0.0 5.016955" Properties=species:S:1:pos:R:3:spacegroup_kinds:I:1:momenta:R:3:forces:R:3 spacegroup="P 1" unit_cell=conventional occupancy="_JSON {\"0\": {\"Al\": 1}, \"1\": {\"Al\": 1}, \"2\": {\"N\": 1}, \"3\": {\"N\": 1}}" energy=-29.520856857299805 free_energy=-29.520856857299805 stress="-0.014047408476471901 0.011821086518466473 -0.0142555832862854 0.011821086518466473 -0.00561468955129385 0.009361524134874344 -0.0142555832862854 0.009361524134874344 -0.01957103982567787" pbc="T T T"
Al       1.52999430       0.91403916       2.46474568        0       0.09545123      -0.23101263      -1.18071438       1.21875620      -0.63577145       0.99290168
Al      -0.00890657       1.82180734       5.05208969        1       0.31216941      -0.10747508       0.45537742       0.39472717      -0.38378623      -1.12710476
N        1.59437711       0.88605552       4.45928988        2      -0.04799057      -0.53350296      -0.20523314      -0.40810558       0.35579079      -0.79021502
N        0.05384447       1.77207216       1.87145001        3      -0.35963012       0.87199065       0.93057017      -1.20537794       0.66376686       0.92441821
4
Lattice="3.128588 0.0 0.0 -1.5642939988088433 2.709436998432005 0.0 0.0 0.0 5.016955" Properties=species:S:1:pos:R:3:spacegroup_kinds:I:1:momenta:R:3:forces:R:3 spacegroup="P 1" unit_cell=conventional occupancy="_JSON {\"0\": {\"Al\": 1}, \"1\": {\"Al\": 1}, \"2\": {\"N\": 1}, \"3\": {\"N\": 1}}" energy=-29.61878776550293 free_energy=-29.61878776550293 stress="0.010117558762431145 -0.0018218726618215442 -0.0018730503506958485 -0.0018218726618215442 -0.024783145636320114 0.0045911590568721294 -0.0018730503506958485 0.0045911590568721294 2.634657357702963e-05" pbc="T T T"
Al       1.53818034       0.90928016       2.47247627        0       0.23228517      -0.27447278       1.41733357       0.21200925       0.18702203       0.85530794
Al       0.01802690       1.81430742       5.03506519        1       0.60360846      -0.42930280      -1.11140848       0.03760190      -0.69444185      -0.55142564
N        1.59518010       0.85128047       4.42414647        2       0.09084577       0.02420678      -0.77345458      -0.19470254       0.84070569       0.01228151
N       -0.01452983       1.83034437       1.92467365        3      -0.92673942       0.67956876       0.46752958      -0.05490850      -0.33328575      -0.31616378
4
Lattice="3.128588 0.0 0.0 -1.5642939988088433 2.709436998432005 0.0 0.0 0.0 5.016955" Properties=species:S:1:pos:R:3:spacegroup_kinds:I:1:momenta:R:3:forces:R:3 spacegroup="P 1" unit_cell=conventional occupancy="_JSON {\"0\": {\"Al\": 1}, \"1\": {\"Al\": 1}, \"2\": {\"N\": 1}, \"3\": {\"N\": 1}}" energy=-29.623743057250977 free_energy=-29.623743057250977 stress="0.004300405271351337 -0.008672608993947506 0.0028819653671234846 -0.008672608993947506 -0.006943742278963327 -0.004434523638337851 0.0028819653671234846 -0.004434523638337851 -0.014839050360023975" pbc="T T T"
Al       1.54321203       0.89379623       2.53645983        0      -0.00705470      -0.41529089       0.79445109      -0.25250033       0.39302796      -0.87834728
Al       0.03580898       1.79893951       4.98957806        1       0.09337907      -0.29525113      -0.61192049      -0.16601306       0.14058258       0.62745672
N        1.59619753       0.90645093       4.40111850        2      -0.02189789       1.09350637       0.27120858      -0.08899546      -0.09593797       0.34911448
N       -0.05911256       1.83464209       1.91219266        3      -0.06442650      -0.38296434      -0.45373912       0.50750899      -0.43767238      -0.09822398
