13
Lattice="7.26870274 0.0 0.0 3.634351370000001 6.294881225397555 0.0 3.634351370000001 2.0982937417991856 5.934870934989993" Properties=species:S:1:pos:R:3:spacegroup_kinds:I:1:momenta:R:3:forces:R:3 spacegroup="P 1" unit_cell=conventional occupancy="_JSON {\"0\": {\"Li\": 1}, \"1\": {\"Li\": 1}, \"2\": {\"Li\": 1}, \"3\": {\"Li\": 1}, \"4\": {\"Li\": 1}, \"5\": {\"Li\": 1}, \"6\": {\"P\": 1}, \"7\": {\"S\": 1}, \"8\": {\"S\": 1}, \"9\": {\"S\": 1}, \"10\": {\"S\": 1}, \"11\": {\"S\": 1}, \"12\": {\"Cl\": 1}}" energy=-53.515541076660156 free_energy=-53.515541076660156 stress="0.00660783052444458 -0.006361858919262886 -0.004932527896016836 -0.006361858919262886 -0.0032296881545335054 -0.0033146822825074196 -0.004932527896016836 -0.0033146822825074196 0.0034157917834818363" pbc="T T T"
Li       9.57502358       7.13915815       2.49549688        0       0.05569005       0.73693884      -0.47317305       0.12590376      -0.04452232      -0.25961146
Li      12.14963912       5.19436957       5.87251892        1       0.32501850      -0.64804397       0.45181654       0.45993954      -0.14104584      -0.00440101
Li       9.61003348       4.80387587       5.50343560        2       0.69627597      -0.32045810      -0.31173423      -0.52993739      -0.29261726       0.41281927
Li      12.76231752       7.24733668       3.14383667        3      -0.10312034      -0.41946739      -0.11481276      -0.19625618      -0.32512599       0.09473976
Li      10.88932644       4.52573253       3.02214056        4       0.26689329      -0.61696122       0.26497078       0.04854925      -0.22750743      -0.40248346
Li       9.80078446       8.32665669       5.52610823        5      -0.49267423       0.60614145      -0.68651659      -0.26764280      -0.55714154       0.19573893
P        7.26787411       4.14097512       2.96906639        6      -1.31882204      -0.15720154      -1.35390813       0.63866019      -0.88979030      -0.06743284
S        7.39453235       5.97625265       2.10738072        7       0.95901162      -0.13803936       0.80707144      -0.26006815       0.42332226       0.17655155
S        9.00374964       3.10452852       2.29029499        8       0.19733501       0.93600942      -0.31488439      -0.34599835       0.79918194       0.25698376
S        5.55815968       3.21602447       2.32208604        9       0.59869556      -0.59680166       0.54545090      -0.14087300       0.01325399      -0.37815624
S        7.26169491       3.97038160       5.03102859       10      -0.56281723       0.40848778      -0.48080473       0.22196463       1.06555176      -0.12970567
S       10.81155292       6.40191598       4.31623050       11       1.95337329       1.14770408       0.83513268       0.15938881      -0.06893029       0.41210139
Cl       0.07669092       0.52690207       0.45106072       12      -2.57485942      -0.93830836       0.83139160       0.08636954       0.24537086      -0.30714387
