13
Lattice="7.26870274 0.0 0.0 3.634351370000001 6.294881225397555 0.0 3.634351370000001 2.0982937417991856 5.934870934989993" Properties=species:S:1:pos:R:3:spacegroup_kinds:I:1:momenta:R:3:forces:R:3 spacegroup="P 1" unit_cell=conventional occupancy="_JSON {\"0\": {\"Li\": 1}, \"1\": {\"Li\": 1}, \"2\": {\"Li\": 1}, \"3\": {\"Li\": 1}, \"4\": {\"Li\": 1}, \"5\": {\"Li\": 1}, \"6\": {\"P\": 1}, \"7\": {\"S\": 1}, \"8\": {\"S\": 1}, \"9\": {\"S\": 1}, \"10\": {\"S\": 1}, \"11\": {\"S\": 1}, \"12\": {\"Cl\": 1}}" energy=-53.3634147644043 free_energy=-53.3634147644043 stress="-0.0007941918447613716 -2.350401189232798e-07 -1.6849865858148405e-07 -2.350401189232798e-07 -0.0007939373608678579 -1.075423128327202e-07 -1.6849865858148405e-07 -1.075423128327202e-07 -0.0007939162314869463" pbc="T T T"
Li       9.25387995       7.24703237       3.10460814        0       0.00000000       0.00000000       0.00000000       0.00422569      -0.00243465       0.00344846
Li      12.55222827       5.34273008       5.79769826        1       0.00000000       0.00000000       0.00000000      -0.00421133       0.00243282      -0.00344126
Li       9.25387995       5.34273008       5.79769826        2       0.00000000       0.00000000       0.00000000       0.00422430       0.00243866      -0.00344655
Li      12.55222827       7.24703237       3.10460814        3       0.00000000       0.00000000       0.00000000      -0.00421157      -0.00243065       0.00344098
Li      10.90305411       4.39057894       3.10460814        4       0.00000000       0.00000000       0.00000000       0.00000228       0.00487564       0.00344766
Li      10.90305411       8.19918351       5.79769826        5       0.00000000       0.00000000       0.00000000       0.00000195      -0.00486362      -0.00344133
P        7.26870274       4.19658748       2.96743547        6       0.00000000       0.00000000       0.00000000       0.00008617       0.00004639       0.00003586
S        7.26870637       6.13578650       2.28182731        7       0.00000000       0.00000000       0.00000000      -0.00001806      -0.01090926       0.00384777
S        8.94810016       3.22699113       2.28182731        8       0.00000000       0.00000000       0.00000000      -0.00945769       0.00544018       0.00384732
S        5.58931258       3.22699113       2.28182731        9       0.00000000       0.00000000       0.00000000       0.00937775       0.00541279       0.00383031
S        7.26870637       4.19658958       5.02426588       10       0.00000000       0.00000000       0.00000000      -0.00001886      -0.00000891      -0.01156987
S       10.90305411       6.29488123       4.45115320       11       0.00000000       0.00000000       0.00000000      -0.00000233      -0.00000089      -0.00000080
Cl       0.00000000       0.00000000       0.00000000       12       0.00000000       0.00000000       0.00000000       0.00000165       0.00000158       0.00000153
13
Lattice="7.26870274 0.0 0.0 3.634351370000001 6.294881225397555 0.0 3.634351370000001 2.0982937417991856 5.934870934989993" Properties=species:S:1:pos:R:3:spacegroup_kinds:I:1:momenta:R:3:forces:R:3 spacegroup="P 1" unit_cell=conventional occupancy="_JSON {\"0\": {\"Li\": 1}, \"1\": {\"Li\": 1}, \"2\": {\"Li\": 1}, \"3\": {\"Li\": 1}, \"4\": {\"Li\": 1}, \"5\": {\"Li\": 1}, \"6\": {\"P\": 1}, \"7\": {\"S\": 1}, \"8\": {\"S\": 1}, \"9\": {\"S\": 1}, \"10\": {\"S\": 1}, \"11\": {\"S\": 1}, \"12\": {\"Cl\": 1}}" energy=-53.328392028808594 free_energy=-53.328392028808594 stress="-0.00025435988209210336 -0.002754763001576066 0.000241962872678414 -0.002754763001576066 0.00046289057354442775 -0.002582090673968196 0.000241962872678414 -0.002582090673968196 0.0015602188650518656" pbc="T T T"
Li       9.23252265       7.25957187       3.06574057        0       0.27499763      -0.19915149       0.06148412       0.02598706      -0.09376103       0.10405724
Li      12.49366360       5.08814302       5.77745585        1      -0.00927581      -0.36405879       0.08921616      -0.13389823       0.04530338       0.00770095
Li       9.48294123       5.01048726       5.81812499        2       0.63588588      -0.84564438       0.29158042       0.08926508      -0.09175730      -0.04174780
Li      12.46410298       7.23769692       2.99786413        3       0.00811277      -0.03890400      -0.15087129       0.04740881      -0.01313949      -0.07009567
Li      10.82379910       4.52327755       3.08101180        4      -0.26850491      -0.11865438       0.00158173       0.11127827      -0.28716883      -0.35821044
Li      10.84682765       8.19119854       5.83944408        5      -0.34191830      -0.69792285      -0.10772576      -0.03185088      -0.01701377      -0.20116289
P        7.22562168       4.18582332       2.97113606        6      -0.53667621      -0.11700617      -0.97253047       0.84074378       0.14920381       0.04661648
S        7.24332774       6.12271842       2.26941116        7      -0.59577364       0.76094902      -0.27900665      -0.05607669       0.06437001       0.15814374
S        8.97169949       3.26187162       2.27802976        8       1.05070592       0.22099332      -0.22135949      -0.56434238      -0.01122897       0.04458977
S        5.54991897       3.26116790       2.27317909        9       0.08022516      -0.57922854      -0.31930997      -0.11569931      -0.11887990       0.12350814
S        7.34423816       4.24632217       5.04019704       10      -0.64387087       0.71033566       1.18995756      -0.25261170      -0.25911888      -0.27416342
S       10.90673305       6.28952240       4.44645652       11      -0.06623348       0.17098079       0.53959191      -0.01329483       0.17671530       0.28340694
Cl       0.01775034       0.00805508       0.03380031       12       0.41232587       1.09731179      -0.12260823       0.05309099       0.45647576       0.17735699
13
Lattice="7.26870274 0.0 0.0 3.634351370000001 6.294881225397555 0.0 3.634351370000001 2.0982937417991856 5.934870934989993" Properties=species:S:1:pos:R:3:spacegroup_kinds:I:1:momenta:R:3:forces:R:3 spacegroup="P 1" unit_cell=conventional occupancy="_JSON {\"0\": {\"Li\": 1}, \"1\": {\"Li\": 1}, \"2\": {\"Li\": 1}, \"3\": {\"Li\": 1}, \"4\": {\"Li\": 1}, \"5\": {\"Li\": 1}, \"6\": {\"P\": 1}, \"7\": {\"S\": 1}, \"8\": {\"S\": 1}, \"9\": {\"S\": 1}, \"10\": {\"S\": 1}, \"11\": {\"S\": 1}, \"12\": {\"Cl\": 1}}" energy=-53.52164077758789 free_energy=-53.52164077758789 stress="-0.0034074457362294197 0.0005411506281234324 -0.0018349431920796633 0.0005411506281234324 0.0018121410394087434 -0.002666909946128726 -0.0018349431920796633 -0.002666909946128726 -0.0034369593486189842" pbc="T T T"
Li       9.32705749       7.24298204       2.98342447        0      -0.01263598       0.37223901      -0.00627429       0.08429730      -0.19000864       0.26225901
Li      12.35896380       4.94008786       5.83872529        1      -0.20271463      -0.10906375      -0.09342297       0.12463342      -0.08840616      -0.05134704
Li       9.75246932       4.25240083       5.85619586        2      -0.07952796      -1.12726130       0.07858717      -0.19126673       0.31704915      -0.11975026
Li      12.42725716       7.21348932       2.97356123        3       0.13517486       0.29330902      -0.12751472       0.08843970       0.06567430       0.01915727
Li      10.85747413       4.51767340       2.89976129        4       0.12175940       0.26498547      -0.09092299       0.08483959       0.10576428       0.01603127
Li      10.44085504       8.27374536       5.78822606        5      -1.09716065       0.17071017      -0.26175029      -0.15920824      -0.66794407      -0.04066139
P        7.20802207       4.22337381       3.01641954        6      -0.93054296       0.59090307      -0.00665180       0.19157958      -0.08528272      -1.59360421
S        7.29509536       6.13130927       2.25701669        7       0.71100731      -0.90956745       0.46243324      -0.35425556       0.49640381       0.15914367
S        8.90378735       3.36000589       2.23978575        8       0.37594971      -0.02998622       0.40880750       0.14812846      -0.73952377       0.11860164
S        5.55388887       3.26981117       2.25552743        9       1.05584489       0.66228982      -0.18373217       0.01121877      -0.21776140      -0.11896306
S        7.29011099       4.14631468       4.99438930       10       0.52411362      -0.26613252      -0.42464464       0.12363070       0.31724334       1.25812697
S       10.93052046       6.17123695       4.53837337       11      -0.87862397      -1.99711951       0.10596599      -0.42985249       0.28242415      -0.26382756
Cl       0.10632264       0.23963424       0.06133866       12       0.27735636       2.08469417       0.13912004       0.27781540       0.40436786       0.35483384
13
Lattice="7.26870274 0.0 0.0 3.634351370000001 6.294881225397555 0.0 3.634351370000001 2.0982937417991856 5.934870934989993" Properties=species:S:1:pos:R:3:spacegroup_kinds:I:1:momenta:R:3:forces:R:3 spacegroup="P 1" unit_cell=conventional occupancy="_JSON {\"0\": {\"Li\": 1}, \"1\": {\"Li\": 1}, \"2\": {\"Li\": 1}, \"3\": {\"Li\": 1}, \"4\": {\"Li\": 1}, \"5\": {\"Li\": 1}, \"6\": {\"P\": 1}, \"7\": {\"S\": 1}, \"8\": {\"S\": 1}, \"9\": {\"S\": 1}, \"10\": {\"S\": 1}, \"11\": {\"S\": 1}, \"12\": {\"Cl\": 1}}" energy=-53.69363784790039 free_energy=-53.69363784790039 stress="0.00468493951484561 0.0005874343332834542 0.004446588456630707 0.0005874343332834542 0.006200847215950489 -0.002196031855419278 0.004446588456630707 -0.002196031855419278 0.012359922751784325" pbc="T T T"
Li       9.47343308       7.09623649       2.77766668        0       0.23533364      -0.36530351      -0.91911951      -0.15771592       0.18671587      -0.08146125
Li      12.33417037       4.66270136       5.61538612        1      -0.20256714      -0.58621417      -0.23115795      -0.07115193       0.19401164       0.17557406
Li       9.49872751       4.57582786       5.78271447        2       0.73063828       1.18427083      -0.12060741       0.46193132      -0.01047716      -0.15048997
Li      12.52129586       7.24863603       3.16088838        3      -0.50081148      -0.71632243       0.56414297      -0.21812057      -0.15284348       0.24716085
Li      10.86181769       4.62130814       2.65512416        4      -0.40937475       0.54585627      -0.14133878       0.06089123      -0.05598923       0.14521311
Li       9.87416867       7.91327345       5.67061746        5      -0.47528808      -0.32531822       0.42649205      -0.05799361       0.40308291       0.35684144
P        7.25948280       4.17239174       2.93236463        6       1.14544615       0.55399226       0.76321733      -0.37280372      -0.13546386       0.44075853
S        7.20885418       6.16529315       2.33281957        7      -0.66464661      -0.77210553      -0.16213074       0.28237361      -0.55028379      -0.20070615
S        8.93997814       3.15214649       2.30844125        8       1.26351982      -1.43070951      -0.38523510      -0.10948561       0.51513344      -0.26181564
S        5.51232042       3.22053516       2.11094947        9      -0.94630915      -0.25957263      -0.26381445       0.78820479       0.36013925       0.78374928
S        7.33657504       4.12548940       5.05570588       10      -0.76700375      -0.59208391      -0.38342187      -0.62652481      -0.27866030      -0.96281725
S       10.80500539       6.18135736       4.50618871       11      -0.94586299       1.06688039      -0.36478180       0.18239444      -0.27091640      -0.52798742
Cl       0.33329573       0.55881589       0.24102142       12       1.53692608       1.69663017       1.21775535      -0.16199918      -0.20444903       0.03598034
13
Lattice="7.26870274 0.0 0.0 3.634351370000001 6.294881225397555 0.0 3.634351370000001 2.0982937417991856 5.934870934989993" Properties=species:S:1:pos:R:3:spacegroup_kinds:I:1:momenta:R:3:forces:R:3 spacegroup="P 1" unit_cell=conventional occupancy="_JSON {\"0\": {\"Li\": 1}, \"1\": {\"Li\": 1}, \"2\": {\"Li\": 1}, \"3\": {\"Li\": 1}, \"4\": {\"Li\": 1}, \"5\": {\"Li\": 1}, \"6\": {\"P\": 1}, \"7\": {\"S\": 1}, \"8\": {\"S\": 1}, \"9\": {\"S\": 1}, \"10\": {\"S\": 1}, \"11\": {\"S\": 1}, \"12\": {\"Cl\": 1}}" energy=-53.55607986450195 free_energy=-53.55607986450195 stress="-0.0038426180835813284 -0.007252920884639025 -0.0029937203507870436 -0.007252920884639025 -0.007058773189783096 -0.004040974657982588 -0.0029937203507870436 -0.004040974657982588 0.0058114794082939625" pbc="T T T"
Li       9.41584563       7.18607742       2.31669846        0      -0.20073104      -0.60122373       0.07378515       0.27932709      -0.30935314       0.31815886
Li      12.36700518       5.09534104       5.70864633        1       0.30940960       0.89693811       0.43019582      -0.12700471      -0.16501924      -0.07673736
Li       9.48312043       4.81896587       5.91068612        2      -0.88504065       0.10501013      -0.02099329       0.17088073      -0.02669824      -0.61417079
Li      12.64952479       7.22300439       3.24484893        3       0.44306999      -0.09907898      -0.06968811      -0.30832016      -0.19583192       0.06718659
Li      10.78076084       4.55765922       2.54203301        4       0.40408320      -0.03647833       0.34437214       0.25346643       0.53329509       0.43456048
Li       9.70375778       7.93042492       5.87068652        5       0.59737279      -0.28073432      -0.45224865       0.19660430       0.08540068      -0.17112501
P        7.28672993       4.06970808       2.95700469        6       0.84052431       0.08424515       0.34614444       0.85996509       0.82897866       0.91308856
S        7.21843713       5.98238230       2.22776149        7       0.65461380      -0.64963036      -1.81001714       0.37905744       0.51941991      -0.15497288
S        8.98705516       3.12872579       2.30167936        8      -0.01288918      -0.01852391       0.18035621      -0.09437118      -0.08063436      -0.29030436
S        5.58179883       3.29732486       2.29131081        9      -0.48681268       0.51895616       0.38148157      -1.20244122      -1.00597048      -0.54076493
S        7.26655560       4.02553854       5.01811444       10       0.06087177      -1.13009290       0.52935349       0.04913870       0.04402446       0.05885133
S       10.72409880       6.27835002       4.32007052       11      -0.37234237       1.12855052      -0.52469462      -0.03851644      -0.20209551       0.02959310
Cl       0.36345667       0.63317262       0.37264019       12      -1.35212956       0.08206242       0.59195304      -0.41778597      -0.02551580       0.02663636
13
Lattice="7.26870274 0.0 0.0 3.634351370000001 6.294881225397555 0.0 3.634351370000001 2.0982937417991856 5.934870934989993" Properties=species:S:1:pos:R:3:spacegroup_kinds:I:1:momenta:R:3:forces:R:3 spacegroup="P 1" unit_cell=conventional occupancy="_JSON {\"0\": {\"Li\": 1}, \"1\": {\"Li\": 1}, \"2\": {\"Li\": 1}, \"3\": {\"Li\": 1}, \"4\": {\"Li\": 1}, \"5\": {\"Li\": 1}, \"6\": {\"P\": 1}, \"7\": {\"S\": 1}, \"8\": {\"S\": 1}, \"9\": {\"S\": 1}, \"10\": {\"S\": 1}, \"11\": {\"S\": 1}, \"12\": {\"Cl\": 1}}" energy=-53.515541076660156 free_energy=-53.515541076660156 stress="0.00660783052444458 -0.006361858919262886 -0.004932527896016836 -0.006361858919262886 -0.0032296881545335054 -0.0033146822825074196 -0.004932527896016836 -0.0033146822825074196 0.0034157917834818363" pbc="T T T"
Li       9.57502358       7.13915815       2.49549688        0       0.05569005       0.73693884      -0.47317305       0.12590376      -0.04452232      -0.25961146
Li      12.14963912       5.19436957       5.87251892        1       0.32501850      -0.64804397       0.45181654       0.45993954      -0.14104584      -0.00440101
Li       9.61003348       4.80387587       5.50343560        2       0.69627597      -0.32045810      -0.31173423      -0.52993739      -0.29261726       0.41281927
Li      12.76231752       7.24733668       3.14383667        3      -0.10312034      -0.41946739      -0.11481276      -0.19625618      -0.32512599       0.09473976
Li      10.88932644       4.52573253       3.02214056        4       0.26689329      -0.61696122       0.26497078       0.04854925      -0.22750743      -0.40248346
Li       9.80078446       8.32665669       5.52610823        5      -0.49267423       0.60614145      -0.68651659      -0.26764280      -0.55714154       0.19573893
P        7.26787411       4.14097512       2.96906639        6      -1.31882204      -0.15720154      -1.35390813       0.63866019      -0.88979030      -0.06743284
S        7.39453235       5.97625265       2.10738072        7       0.95901162      -0.13803936       0.80707144      -0.26006815       0.42332226       0.17655155
S        9.00374964       3.10452852       2.29029499        8       0.19733501       0.93600942      -0.31488439      -0.34599835       0.79918194       0.25698376
S        5.55815968       3.21602447       2.32208604        9       0.59869556      -0.59680166       0.54545090      -0.14087300       0.01325399      -0.37815624
S        7.26169491       3.97038160       5.03102859       10      -0.56281723       0.40848778      -0.48080473       0.22196463       1.06555176      -0.12970567
S       10.81155292       6.40191598       4.31623050       11       1.95337329       1.14770408       0.83513268       0.15938881      -0.06893029       0.41210139
Cl       0.07669092       0.52690207       0.45106072       12      -2.57485942      -0.93830836       0.83139160       0.08636954       0.24537086      -0.30714387
