13
Lattice="7.26870274 0.0 0.0 3.634351370000001 6.294881225397555 0.0 3.634351370000001 2.0982937417991856 5.934870934989993" Properties=species:S:1:pos:R:3:spacegroup_kinds:I:1:forces:R:3 spacegroup="P 1" unit_cell=conventional occupancy="_JSON {\"0\": {\"Li\": 1}, \"1\": {\"Li\": 1}, \"2\": {\"Li\": 1}, \"3\": {\"Li\": 1}, \"4\": {\"Li\": 1}, \"5\": {\"Li\": 1}, \"6\": {\"P\": 1}, \"7\": {\"S\": 1}, \"8\": {\"S\": 1}, \"9\": {\"S\": 1}, \"10\": {\"S\": 1}, \"11\": {\"S\": 1}, \"12\": {\"Cl\": 1}}" energy=-53.3634147644043 free_energy=-53.3634147644043 stress="-0.0007941918447613716 -2.350401189232798e-07 -1.6849865858148405e-07 -2.350401189232798e-07 -0.0007939373608678579 -1.075423128327202e-07 -1.6849865858148405e-07 -1.075423128327202e-07 -0.0007939162314869463" pbc="T T T"
Li       9.25387995       7.24703237       3.10460814        0       0.00422569      -0.00243465       0.00344846
Li      12.55222827       5.34273008       5.79769826        1      -0.00421133       0.00243282      -0.00344126
Li       9.25387995       5.34273008       5.79769826        2       0.00422430       0.00243866      -0.00344655
Li      12.55222827       7.24703237       3.10460814        3      -0.00421157      -0.00243065       0.00344098
Li      10.90305411       4.39057894       3.10460814        4       0.00000228       0.00487564       0.00344766
Li      10.90305411       8.19918351       5.79769826        5       0.00000195      -0.00486362      -0.00344133
P        7.26870274       4.19658748       2.96743547        6       0.00008617       0.00004639       0.00003586
S        7.26870637       6.13578650       2.28182731        7      -0.00001806      -0.01090926       0.00384777
S        8.94810016       3.22699113       2.28182731        8      -0.00945769       0.00544018       0.00384732
S        5.58931258       3.22699113       2.28182731        9       0.00937775       0.00541279       0.00383031
S        7.26870637       4.19658958       5.02426588       10      -0.00001886      -0.00000891      -0.01156987
S       10.90305411       6.29488123       4.45115320       11      -0.00000233      -0.00000089      -0.00000080
Cl       0.00000000       0.00000000       0.00000000       12       0.00000165       0.00000158       0.00000153
