4
Lattice="3.128588 0.0 0.0 -1.5642939988088433 2.709436998432005 0.0 0.0 0.0 5.016955" Properties=species:S:1:pos:R:3:spacegroup_kinds:I:1:momenta:R:3:forces:R:3 spacegroup="P 1" unit_cell=conventional occupancy="_JSON {\"0\": {\"Al\": 1}, \"1\": {\"Al\": 1}, \"2\": {\"N\": 1}, \"3\": {\"N\": 1}}" energy=-29.623743057250977 free_energy=-29.623743057250977 stress="0.0043006534688174725 -0.008672642521560192 0.002881827298551798 -0.008672642521560192 -0.006943562533706427 -0.004434551578015089 0.002881827298551798 -0.004434551578015089 -0.014839069917798042" pbc="T T T"
Al       1.54321206       0.89379621       2.53645987        0      -0.00705436      -0.41529115       0.79444950      -0.25250021       0.39303109      -0.87834638
Al       0.03580898       1.79893951       4.98957810        1       0.09337886      -0.29525222      -0.61192011      -0.16601065       0.14058097       0.62745339
N        1.59619754       0.90645099       4.40111848        2      -0.02189801       1.09350750       0.27120920      -0.08899777      -0.09593728       0.34911132
N       -0.05911260       1.83464205       1.91219258        3      -0.06442660      -0.38296419      -0.45373849       0.50750875      -0.43767470      -0.09821866
