4
Lattice="3.128588 0.0 0.0 -1.5642939988088433 2.709436998432005 0.0 0.0 0.0 5.016955" Properties=species:S:1:pos:R:3:spacegroup_kinds:I:1:momenta:R:3:forces:R:3 spacegroup="P 1" unit_cell=conventional occupancy="_JSON {\"0\": {\"Al\": 1}, \"1\": {\"Al\": 1}, \"2\": {\"N\": 1}, \"3\": {\"N\": 1}}" energy=-29.673717498779297 free_energy=-29.673717498779297 stress="-0.0022255198564380407 -1.448831881134538e-06 3.61839469498193e-09 -1.448831881134538e-06 -0.00222756527364254 -6.100577820689068e-08 3.61839469498193e-09 -6.100577820689068e-08 -0.005453699734061956" pbc="T T T"
Al       1.56429556       0.90314476       2.50490041        0       0.68448204       0.53670047       0.91071479      -0.00003569       0.00001979       0.00553241
Al      -0.00000156       1.80629224       5.01337791        1       0.31075784       0.39520501      -1.87833745       0.00003543      -0.00001902       0.00552436
N        1.56429556       0.90314476       4.41849749        2      -0.23293981      -0.79739853      -0.40745139      -0.00003674       0.00001979      -0.00553045
N       -0.00000156       1.80629224       1.91001999        3      -0.76230006      -0.13450696       1.37507406       0.00003691      -0.00002055      -0.00552613
4
Lattice="3.128588 0.0 0.0 -1.5642939988088433 2.709436998432005 0.0 0.0 0.0 5.016955" Properties=species:S:1:pos:R:3:spacegroup_kinds:I:1:momenta:R:3:forces:R:3 spacegroup="P 1" unit_cell=conventional occupancy="_JSON {\"0\": {\"Al\": 1}, \"1\": {\"Al\": 1}, \"2\": {\"N\": 1}, \"3\": {\"N\": 1}}" energy=-29.43359375 free_energy=-29.43359375 stress="-0.013773503713309765 -0.016446450725197792 0.012948783114552498 -0.016446450725197792 -0.02396874502301216 0.009969736449420452 0.012948783114552498 0.009969736449420452 -0.012059459462761879" pbc="T T T"
Al       1.60246141       0.92231285       2.54150849        0       0.57498203      -0.13491953       1.02882479      -1.31301284      -0.49033496      -0.87831426
Al       0.00328789       1.81111140       4.94718774        1      -0.44725799       0.00118051      -1.07867291      -0.30154115      -0.59423310       1.18011892
N        1.53678587       0.85870779       4.38099594        2       0.14052025      -0.46066722       0.20203845       0.28490728       0.67984527       1.25553656
N       -0.05228245       1.80432669       2.00436659        3      -0.26824430       0.59440627      -0.15219033       1.32964659       0.40472257      -1.55734110
4
Lattice="3.128588 0.0 0.0 -1.5642939988088433 2.709436998432005 0.0 0.0 0.0 5.016955" Properties=species:S:1:pos:R:3:spacegroup_kinds:I:1:momenta:R:3:forces:R:3 spacegroup="P 1" unit_cell=conventional occupancy="_JSON {\"0\": {\"Al\": 1}, \"1\": {\"Al\": 1}, \"2\": {\"N\": 1}, \"3\": {\"N\": 1}}" energy=-29.567256927490234 free_energy=-29.567256927490234 stress="0.012915774248540401 0.0017025033012032509 0.0035794037394225597 0.0017025033012032509 -0.025856737047433853 -0.005369042512029409 0.0035794037394225597 -0.005369042512029409 -0.01143521536141634" pbc="T T T"
Al       1.59598186       0.90138488       2.55101265        0      -0.85003967      -0.64755178      -0.41676291      -0.33522704       0.74370205      -1.26921237
Al      -0.01311799       1.79082858       4.96769659        1      -0.24557024      -0.74327805       1.65595793      -0.18280239      -0.17026886       1.21499658
N        1.52960407       0.86779351       4.41996339        2       0.16413060       0.60763599       0.63654558       0.31887618       0.39321303      -0.09057143
N       -0.00060094       1.87475185       1.90756519        3       0.93147929       0.78319389      -1.87574050       0.19915310      -0.96664631       0.14478728
4
Lattice="3.128588 0.0 0.0 -1.5642939988088433 2.709436998432005 0.0 0.0 0.0 5.016955" Properties=species:S:1:pos:R:3:spacegroup_kinds:I:1:momenta:R:3:forces:R:3 spacegroup="P 1" unit_cell=conventional occupancy="_JSON {\"0\": {\"Al\": 1}, \"1\": {\"Al\": 1}, \"2\": {\"N\": 1}, \"3\": {\"N\": 1}}" energy=-29.406274795532227 free_energy=-29.406274795532227 stress="0.010688790120184422 0.016498198732733727 -0.008163988590240479 0.016498198732733727 -0.009423277340829372 -0.015553954988718033 -0.008163988590240479 -0.015553954988718033 -0.06125416234135628" pbc="T T T"
Al       1.53423929       0.87298461       2.51007452        0      -1.60925388       0.09619150      -1.03262342       0.74608815       1.00298560       0.03482400
Al      -0.01349004       1.78470221       5.05709167        1       0.21561207      -0.04339774       1.72443282       0.02271154       0.40732786      -1.66436982
N        1.55208974       0.92225133       4.42203507        2       0.38659416       0.63935788      -0.93002890       0.04495848      -0.39009574      -0.56986052
N        0.09667396       1.88681817       1.81230437        3       1.00704763      -0.69215164       0.23821958      -0.81375813      -1.02021754       2.19940615
4
Lattice="3.128588 0.0 0.0 -1.5642939988088433 2.709436998432005 0.0 0.0 0.0 5.016955" Properties=species:S:1:pos:R:3:spacegroup_kinds:I:1:momenta:R:3:forces:R:3 spacegroup="P 1" unit_cell=conventional occupancy="_JSON {\"0\": {\"Al\": 1}, \"1\": {\"Al\": 1}, \"2\": {\"N\": 1}, \"3\": {\"N\": 1}}" energy=-29.201902389526367 free_energy=-29.201902389526367 stress="-0.026440873742103577 0.03815527260303497 -0.031382545828819275 0.03815527260303497 -0.004877450410276651 0.0015436899848282337 -0.031382545828819275 0.0015436899848282337 -0.051819756627082825" pbc="T T T"
Al       1.49382403       0.87740191       2.48150487        0      -0.08661654      -0.02748808       0.25595546       2.48428202      -0.46186218       1.22611701
Al      -0.02076738       1.79337852       5.08843296        1       0.00716734       0.60209093      -1.27068262       0.64723372       0.57433462      -2.36004066
N        1.60157223       0.96971683       4.33361322        2       0.49437274       0.53650996      -0.17473359      -0.53882694      -0.70145309       1.74608791
N        0.13924907       1.81421456       1.89535167        3      -0.41492353      -1.11111279       1.18946087      -2.59268832       0.58898079      -0.61216480
4
Lattice="3.128588 0.0 0.0 -1.5642939988088433 2.709436998432005 0.0 0.0 0.0 5.016955" Properties=species:S:1:pos:R:3:spacegroup_kinds:I:1:momenta:R:3:forces:R:3 spacegroup="P 1" unit_cell=conventional occupancy="_JSON {\"0\": {\"Al\": 1}, \"1\": {\"Al\": 1}, \"2\": {\"N\": 1}, \"3\": {\"N\": 1}}" energy=-29.574628829956055 free_energy=-29.574628829956055 stress="-0.023618165403604507 -0.014321419410407543 -0.011128053069114685 -0.014321419410407543 0.015029973350465298 -0.002854563994333148 -0.011128053069114685 -0.002854563994333148 -0.014440294355154037" pbc="T T T"
Al       1.53421963       0.88369269       2.53780581        0       1.55944049       0.36820889       1.55971077       0.29264235      -0.24000478      -0.91367304
Al      -0.00048008       1.82107766       4.98837344        1       1.01688581       0.86374292      -2.47525479       0.94369519       0.52251220       0.78486049
N        1.63583966       0.96584646       4.40663186        2      -0.31021924      -0.52489288       1.27117366      -1.15103793      -0.78906739       0.05688009
N       -0.01177521       1.75252283       1.90648729        3      -2.26610699      -0.70705890      -0.35562958      -0.08529948       0.50656003       0.07193279
4
Lattice="3.128588 0.0 0.0 -1.5642939988088433 2.709436998432005 0.0 0.0 0.0 5.016955" Properties=species:S:1:pos:R:3:spacegroup_kinds:I:1:momenta:R:3:forces:R:3 spacegroup="P 1" unit_cell=conventional occupancy="_JSON {\"0\": {\"Al\": 1}, \"1\": {\"Al\": 1}, \"2\": {\"N\": 1}, \"3\": {\"N\": 1}}" energy=-29.372074127197266 free_energy=-29.372074127197266 stress="-0.005629813764244318 -0.018719371408224106 0.015849487856030464 -0.018719371408224106 -0.03227294981479645 0.01721220090985298 0.015849487856030464 0.01721220090985298 -0.007298149634152651" pbc="T T T"
Al       1.57072836       0.88046442       2.56331978        0      -0.00039228      -0.37629477      -0.57844031      -1.34386384      -0.44065899      -1.50707674
Al       0.05055071       1.86456080       4.94968569        1       0.52727034       0.77034095       1.04960162      -0.49129075      -1.36433578       1.82584858
N        1.58204797       0.88176660       4.44992391        2      -0.27832268      -1.02263316      -0.55459309       0.15003799       1.16375971      -0.85894954
N       -0.12661084       1.75915455       1.88869866        3      -0.24855532       0.62858696       0.08343182       1.68511701       0.64123511       0.54017764
4
Lattice="3.128588 0.0 0.0 -1.5642939988088433 2.709436998432005 0.0 0.0 0.0 5.016955" Properties=species:S:1:pos:R:3:spacegroup_kinds:I:1:momenta:R:3:forces:R:3 spacegroup="P 1" unit_cell=conventional occupancy="_JSON {\"0\": {\"Al\": 1}, \"1\": {\"Al\": 1}, \"2\": {\"N\": 1}, \"3\": {\"N\": 1}}" energy=-29.596923828125 free_energy=-29.596923828125 stress="0.01597624085843563 -0.004505924414843321 0.006018730346113443 -0.004505924414843321 -0.025499338284134865 -0.00459714001044631 0.006018730346113443 -0.00459714001044631 -0.010013898834586143" pbc="T T T"
Al       1.53284807       0.86390067       2.51395078        0      -1.59464546      -0.16469697      -1.74991389      -0.27820775       0.89915872      -0.15420488
Al       0.06317842       1.83227863       5.00948379        1       0.38440003      -1.80666625       1.59449956      -0.58708525      -0.41271263       0.16725066
N        1.58572476       0.89623790       4.41422575        2       0.14193196       1.12964957      -0.09119133       0.25704286       0.38076290       0.00228072
N       -0.08152104       1.83862418       1.90381447        3       1.06831354       0.84171362       0.24660573       0.60825020      -0.86720884      -0.01532682
4
Lattice="3.128588 0.0 0.0 -1.5642939988088433 2.709436998432005 0.0 0.0 0.0 5.016955" Properties=species:S:1:pos:R:3:spacegroup_kinds:I:1:momenta:R:3:forces:R:3 spacegroup="P 1" unit_cell=conventional occupancy="_JSON {\"0\": {\"Al\": 1}, \"1\": {\"Al\": 1}, \"2\": {\"N\": 1}, \"3\": {\"N\": 1}}" energy=-29.462554931640625 free_energy=-29.462554931640625 stress="-0.005697007291018963 0.01084942277520895 -0.003906605765223503 0.01084942277520895 -0.01913376897573471 -0.012703253887593746 -0.003906605765223503 -0.012703253887593746 -0.011871392838656902" pbc="T T T"
Al       1.48347329       0.88264395       2.44527928        0      -0.30454496       1.01149489      -0.60004608       0.88393146       0.95768452       1.70777059
Al       0.06164410       1.77681258       5.07306072        1      -0.86715241      -0.75617344       0.43048962      -0.30080646       0.71655577      -1.72280002
N        1.61717711       0.94947186       4.40498429        2       0.38645861       0.04830034       0.18623335      -0.07234009      -0.67486238       0.48910698
N       -0.01486929       1.85626148       1.92266704        3       0.78523881      -0.30362185      -0.01667687      -0.51078498      -0.99937767      -0.47407767
4
Lattice="3.128588 0.0 0.0 -1.5642939988088433 2.709436998432005 0.0 0.0 0.0 5.016955" Properties=species:S:1:pos:R:3:spacegroup_kinds:I:1:momenta:R:3:forces:R:3 spacegroup="P 1" unit_cell=conventional occupancy="_JSON {\"0\": {\"Al\": 1}, \"1\": {\"Al\": 1}, \"2\": {\"N\": 1}, \"3\": {\"N\": 1}}" energy=-29.518747329711914 free_energy=-29.518747329711914 stress="-0.023370571434497833 0.006540026981383562 -0.0160982608795166 0.006540026981383562 0.0066975015215575695 -0.00048236039583571255 -0.0160982608795166 -0.00048236039583571255 -0.022161273285746574" pbc="T T T"
Al       1.50607639       0.94974317       2.46463695        0       1.15921356       0.62635174       1.50689970       1.24247599      -0.60704470       1.15697241
Al       0.01335471       1.75088042       5.06242875        1      -0.91112012       0.14825297      -0.88962624       0.51474541       0.69610763      -1.43089056
N        1.62637958       0.90489616       4.42127860        2      -0.14223538      -0.64065093       0.21498340      -0.71771759      -0.51824260      -0.07984588
N        0.02538009       1.82158368       1.88963028        3      -0.10585803      -0.13395386      -0.83225687      -1.03950357       0.42917931       0.35376444
4
Lattice="3.128588 0.0 0.0 -1.5642939988088433 2.709436998432005 0.0 0.0 0.0 5.016955" Properties=species:S:1:pos:R:3:spacegroup_kinds:I:1:momenta:R:3:forces:R:3 spacegroup="P 1" unit_cell=conventional occupancy="_JSON {\"0\": {\"Al\": 1}, \"1\": {\"Al\": 1}, \"2\": {\"N\": 1}, \"3\": {\"N\": 1}}" energy=-29.605009078979492 free_energy=-29.605009078979492 stress="0.001595775713212788 -0.006785993464291096 -0.0030955413822084665 -0.006785993464291096 0.001780493650585413 0.0017242805333808064 -0.0030955413822084665 0.0017242805333808064 -0.023113569244742393" pbc="T T T"
Al       1.56693926       0.93861028       2.54470911        0       1.44875322      -0.98943831       1.48437459      -0.01659319      -0.29131478      -1.20300949
Al      -0.01304570       1.78057349       4.99752452        1       0.01689777       1.11024928      -1.70730015       0.38438511       0.02358130       0.50760585
N        1.58384204       0.87104966       4.42155574        2      -0.67927449      -0.02704888      -0.19037167      -0.39236844       0.15177935      -0.39792407
N        0.00122212       1.81989282       1.85992054        3      -0.78637646      -0.09376214       0.41329728       0.02457634       0.11595432       1.09332752
4
Lattice="3.128588 0.0 0.0 -1.5642939988088433 2.709436998432005 0.0 0.0 0.0 5.016955" Properties=species:S:1:pos:R:3:spacegroup_kinds:I:1:momenta:R:3:forces:R:3 spacegroup="P 1" unit_cell=conventional occupancy="_JSON {\"0\": {\"Al\": 1}, \"1\": {\"Al\": 1}, \"2\": {\"N\": 1}, \"3\": {\"N\": 1}}" energy=-29.470205307006836 free_energy=-29.470205307006836 stress="0.0032034367322921753 -0.017801571637392044 0.01183836068958044 -0.017801571637392044 -0.04134895280003548 0.007359919138252735 0.01183836068958044 0.007359919138252735 -0.0051603796891868114" pbc="T T T"
Al       1.62755628       0.89950077       2.54516755        0       1.04970765      -0.99981835      -0.80202902      -1.41065156       0.15933302      -0.91778624
Al      -0.00757058       1.81703571       4.95606284        1      -0.03757953       0.11959761      -0.16512806      -0.26242501      -0.84351552       1.41445386
N        1.52756234       0.85151208       4.42065486        2      -0.42752211       0.29023154      -0.07965741       0.31765670       0.98894614      -0.00115206
N       -0.06966664       1.84442112       1.93994533        3      -0.58460598       0.58998917       1.04681454       1.35542011      -0.30476367      -0.49551526
4
Lattice="3.128588 0.0 0.0 -1.5642939988088433 2.709436998432005 0.0 0.0 0.0 5.016955" Properties=species:S:1:pos:R:3:spacegroup_kinds:I:1:momenta:R:3:forces:R:3 spacegroup="P 1" unit_cell=conventional occupancy="_JSON {\"0\": {\"Al\": 1}, \"1\": {\"Al\": 1}, \"2\": {\"N\": 1}, \"3\": {\"N\": 1}}" energy=-29.45298957824707 free_energy=-29.45298957824707 stress="-0.013225332833826542 -0.023750271648168564 0.007911409251391888 -0.023750271648168564 -0.04793194681406021 -0.007333335001021624 0.007911409251391888 -0.007333335001021624 0.028633011505007744" pbc="T T T"
Al       1.63184039       0.85684029       2.46693552        0      -0.97589069      -0.55899531      -1.34838400      -1.39010191       1.11025977       1.17303753
Al      -0.02377744       1.82170278       4.98999599        1      -0.28018812       0.45883572       1.28013579      -0.08532274       0.08283549       0.34697515
N        1.52792699       0.92957757       4.44479004        2       0.11446480       0.97873180       0.08012499       0.22035746      -0.17398876       0.05598976
N       -0.04718868       1.83921498       2.00086012        3       1.14161392      -0.87857225      -0.01187673       1.25506687      -1.01910651      -1.57600284
4
Lattice="3.128588 0.0 0.0 -1.5642939988088433 2.709436998432005 0.0 0.0 0.0 5.016955" Properties=species:S:1:pos:R:3:spacegroup_kinds:I:1:momenta:R:3:forces:R:3 spacegroup="P 1" unit_cell=conventional occupancy="_JSON {\"0\": {\"Al\": 1}, \"1\": {\"Al\": 1}, \"2\": {\"N\": 1}, \"3\": {\"N\": 1}}" energy=-29.53631591796875 free_energy=-29.53631591796875 stress="-0.019857674837112427 0.013829002156853676 -0.005717376712709665 0.013829002156853676 -0.0031642233952879906 -0.001670996192842722 -0.005717376712709665 -0.001670996192842722 -0.006260556168854237" pbc="T T T"
Al       1.56291507       0.86348346       2.43836898        0      -1.44558833       0.38889058       0.34074899       0.67285967       0.11609332       1.45909679
Al      -0.01834141       1.83613137       5.05736571        1       0.19731500      -0.00921473       1.04742176       0.06595288       0.15003431      -1.19267404
N        1.54726699       0.95741146       4.47045638        2      -0.01023977       0.05684936       0.14844044       0.09761359      -0.44420809      -0.65174818
N        0.05576966       1.77068665       1.90062731        3       1.25851302      -0.43652524      -1.53661111      -0.83642614       0.17808041       0.38532531
4
Lattice="3.128588 0.0 0.0 -1.5642939988088433 2.709436998432005 0.0 0.0 0.0 5.016955" Properties=species:S:1:pos:R:3:spacegroup_kinds:I:1:momenta:R:3:forces:R:3 spacegroup="P 1" unit_cell=conventional occupancy="_JSON {\"0\": {\"Al\": 1}, \"1\": {\"Al\": 1}, \"2\": {\"N\": 1}, \"3\": {\"N\": 1}}" energy=-29.531002044677734 free_energy=-29.531002044677734 stress="-0.01829398050904274 0.015707772225141525 -0.011607817374169827 0.015707772225141525 0.0031477792654186487 0.004605756141245365 -0.011607817374169827 0.004605756141245365 -0.017258841544389725" pbc="T T T"
Al       1.54701074       0.87273542       2.46070913        0       0.71855719      -0.11584361       0.49435335       1.07476509      -0.28505871       1.06925833
Al      -0.01761626       1.84389396       5.05391124        1       0.19346431       0.17720399      -0.69190166       0.23187670      -0.07942061      -1.16825616
N        1.56395353       0.94331117       4.45961400        2       0.32487442      -0.12409402      -0.51346105      -0.11546980      -0.20503297      -0.72920024
N        0.06831349       1.75176770       1.87546337        3      -1.23689598       0.06273359       0.71100943      -1.19117200       0.56951237       0.82819813
4
Lattice="3.128588 0.0 0.0 -1.5642939988088433 2.709436998432005 0.0 0.0 0.0 5.016955" Properties=species:S:1:pos:R:3:spacegroup_kinds:I:1:momenta:R:3:forces:R:3 spacegroup="P 1" unit_cell=conventional occupancy="_JSON {\"0\": {\"Al\": 1}, \"1\": {\"Al\": 1}, \"2\": {\"N\": 1}, \"3\": {\"N\": 1}}" energy=-29.61321258544922 free_energy=-29.61321258544922 stress="-0.008381557650864124 -0.004276636987924576 0.005492893047630787 -0.004276636987924576 -0.013937064446508884 0.0014803885715082288 0.005492893047630787 0.0014803885715082288 0.012475460767745972" pbc="T T T"
Al       1.57767907       0.87033377       2.48321564        0       0.42145880      -0.10085945       0.75449452      -0.50598711       0.14215486       0.64867634
Al       0.00878683       1.84488740       5.00616580        1       0.94842511       0.04829636      -0.67234789      -0.28191096      -0.37569696       0.05942798
N        1.54733739       0.91884311       4.41695265        2      -0.50233563      -0.06173797      -0.86681621       0.26756826       0.16352487       0.34766692
N       -0.02491944       1.77881440       1.96659666        3      -0.86754830       0.11430101       0.78466965       0.52032965       0.07001717      -1.05577147
4
Lattice="3.128588 0.0 0.0 -1.5642939988088433 2.709436998432005 0.0 0.0 0.0 5.016955" Properties=species:S:1:pos:R:3:spacegroup_kinds:I:1:momenta:R:3:forces:R:3 spacegroup="P 1" unit_cell=conventional occupancy="_JSON {\"0\": {\"Al\": 1}, \"1\": {\"Al\": 1}, \"2\": {\"N\": 1}, \"3\": {\"N\": 1}}" energy=-29.557836532592773 free_energy=-29.557836532592773 stress="-0.016363585367798805 -0.0029474704060703516 0.01290369126945734 -0.0029474704060703516 -0.0062074437737464905 0.0015376347582787275 0.01290369126945734 0.0015376347582787275 -0.0027150006499141455" pbc="T T T"
Al       1.59068813       0.88023430       2.52274589        0      -0.41625566       0.17887041       0.33160857      -0.90884262      -0.14030579      -0.36868334
Al       0.01872293       1.83477376       4.97781988        1       0.14973966      -0.20763072      -0.17578607      -0.72829539      -0.10046253       0.72653162
N        1.52039173       0.92489998       4.39464382        2       0.19754366       0.25939929       0.47781795       0.72475874      -0.09605055       0.71574211
N       -0.04216867       1.77342020       1.96745702        3       0.06897232      -0.23063910      -0.63364038       0.91237915       0.33681890      -1.07359052
4
Lattice="3.128588 0.0 0.0 -1.5642939988088433 2.709436998432005 0.0 0.0 0.0 5.016955" Properties=species:S:1:pos:R:3:spacegroup_kinds:I:1:momenta:R:3:forces:R:3 spacegroup="P 1" unit_cell=conventional occupancy="_JSON {\"0\": {\"Al\": 1}, \"1\": {\"Al\": 1}, \"2\": {\"N\": 1}, \"3\": {\"N\": 1}}" energy=-29.621110916137695 free_energy=-29.621110916137695 stress="-0.021500738337635994 0.005276370793581009 -0.0032675140537321568 0.005276370793581009 0.010657870210707188 0.001924886484630406 -0.0032675140537321568 0.001924886484630406 -0.0015900615835562348" pbc="T T T"
Al       1.54767648       0.89587761       2.50832861        0      -0.85810016       0.46896457      -1.00003122       0.39160660      -0.39029238      -0.15032271
Al       0.00665802       1.82067515       5.00342491        1      -0.72966993      -0.11082593       1.46536848      -0.00950095       0.22697134       0.34862685
N        1.57185933       0.94293301       4.45440729        2       0.62349865      -0.37686570       0.64593130      -0.01969717      -0.43335325      -0.83889806
N        0.01256032       1.75229417       1.88600539        3       0.96427142       0.01872699      -1.11126843      -0.36240852       0.59667438       0.64059407
4
Lattice="3.128588 0.0 0.0 -1.5642939988088433 2.709436998432005 0.0 0.0 0.0 5.016955" Properties=species:S:1:pos:R:3:spacegroup_kinds:I:1:momenta:R:3:forces:R:3 spacegroup="P 1" unit_cell=conventional occupancy="_JSON {\"0\": {\"Al\": 1}, \"1\": {\"Al\": 1}, \"2\": {\"N\": 1}, \"3\": {\"N\": 1}}" energy=-29.520856857299805 free_energy=-29.520856857299805 stress="-0.014047320000827312 0.011821029707789421 -0.014255622401833534 0.011821029707789421 -0.005614687222987413 0.00936148501932621 -0.014255622401833534 0.00936148501932621 -0.019571006298065186" pbc="T T T"
Al       1.52999428       0.91403913       2.46474572        0       0.09545156      -0.23101253      -1.18071341       1.21875644      -0.63577223       0.99290097
Al      -0.00890655       1.82180736       5.05208967        1       0.31216897      -0.10747398       0.45537836       0.39472649      -0.38378596      -1.12710369
N        1.59437713       0.88605550       4.45928987        2      -0.04799041      -0.53350378      -0.20523360      -0.40810522       0.35579133      -0.79021513
N        0.05384450       1.77207217       1.87145006        3      -0.35963020       0.87199028       0.93056882      -1.20537806       0.66376686       0.92441809
4
Lattice="3.128588 0.0 0.0 -1.5642939988088433 2.709436998432005 0.0 0.0 0.0 5.016955" Properties=species:S:1:pos:R:3:spacegroup_kinds:I:1:momenta:R:3:forces:R:3 spacegroup="P 1" unit_cell=conventional occupancy="_JSON {\"0\": {\"Al\": 1}, \"1\": {\"Al\": 1}, \"2\": {\"N\": 1}, \"3\": {\"N\": 1}}" energy=-29.618789672851562 free_energy=-29.618789672851562 stress="0.010117881000041962 -0.0018220280762761831 -0.001873017754405737 -0.0018220280762761831 -0.024783024564385414 0.00459111575037241 -0.001873017754405737 0.00459111575037241 2.641104583744891e-05" pbc="T T T"
Al       1.53818035       0.90928014       2.47247634        0       0.23228580      -0.27447272       1.41733349       0.21200860       0.18702194       0.85530710
Al       0.01802690       1.81430747       5.03506522        1       0.60360836      -0.42930335      -1.11140763       0.03760148      -0.69444227      -0.55142498
N        1.59518012       0.85128043       4.42414643        2       0.09084564       0.02420759      -0.77345489      -0.19470271       0.84070635       0.01228181
N       -0.01452983       1.83034435       1.92467357        3      -0.92673992       0.67956847       0.46752914      -0.05490761      -0.33328611      -0.31616390
4
Lattice="3.128588 0.0 0.0 -1.5642939988088433 2.709436998432005 0.0 0.0 0.0 5.016955" Properties=species:S:1:pos:R:3:spacegroup_kinds:I:1:momenta:R:3:forces:R:3 spacegroup="P 1" unit_cell=conventional occupancy="_JSON {\"0\": {\"Al\": 1}, \"1\": {\"Al\": 1}, \"2\": {\"N\": 1}, \"3\": {\"N\": 1}}" energy=-29.623743057250977 free_energy=-29.623743057250977 stress="0.0043006534688174725 -0.008672642521560192 0.002881827298551798 -0.008672642521560192 -0.006943562533706427 -0.004434551578015089 0.002881827298551798 -0.004434551578015089 -0.014839069917798042" pbc="T T T"
Al       1.54321206       0.89379621       2.53645987        0      -0.00705436      -0.41529115       0.79444950      -0.25250021       0.39303109      -0.87834638
Al       0.03580898       1.79893951       4.98957810        1       0.09337886      -0.29525222      -0.61192011      -0.16601065       0.14058097       0.62745339
N        1.59619754       0.90645099       4.40111848        2      -0.02189801       1.09350750       0.27120920      -0.08899777      -0.09593728       0.34911132
N       -0.05911260       1.83464205       1.91219258        3      -0.06442660      -0.38296419      -0.45373849       0.50750875      -0.43767470      -0.09821866
