4
Lattice="3.128588 0.0 0.0 -1.5642939988088433 2.709436998432005 0.0 0.0 0.0 5.016955" Properties=species:S:1:pos:R:3:spacegroup_kinds:I:1:forces:R:3 spacegroup="P 1" unit_cell=conventional occupancy="_JSON {\"0\": {\"Al\": 1}, \"1\": {\"Al\": 1}, \"2\": {\"N\": 1}, \"3\": {\"N\": 1}}" energy=-29.673717498779297 free_energy=-29.673717498779297 stress="-0.0022255198564380407 -1.448831881134538e-06 3.61839469498193e-09 -1.448831881134538e-06 -0.00222756527364254 -6.100577820689068e-08 3.61839469498193e-09 -6.100577820689068e-08 -0.005453699734061956" pbc="T T T"
Al       1.56429556       0.90314476       2.50490041        0      -0.00003569       0.00001979       0.00553241
Al      -0.00000156       1.80629224       5.01337791        1       0.00003543      -0.00001902       0.00552436
N        1.56429556       0.90314476       4.41849749        2      -0.00003674       0.00001979      -0.00553045
N       -0.00000156       1.80629224       1.91001999        3       0.00003691      -0.00002055      -0.00552613
