4
Lattice="3.128588 0.0 0.0 -1.5642939988088433 2.709436998432005 0.0 0.0 0.0 5.016955" Properties=species:S:1:pos:R:3:spacegroup_kinds:I:1:forces:R:3 spacegroup="P 1" unit_cell=conventional occupancy="_JSON {\"0\": {\"Al\": 1}, \"1\": {\"Al\": 1}, \"2\": {\"N\": 1}, \"3\": {\"N\": 1}}" energy=-29.673717498779297 free_energy=-29.673717498779297 stress="-0.0022252346388995647 -1.3259179922897602e-06 -2.3081733857566178e-08 -1.3259179922897602e-06 -0.0022275580558925867 -1.6321486384640593e-08 -2.3081733857566178e-08 -1.6321486384640593e-08 -0.005453660152852535" pbc="T T T"
Al       1.56429556       0.90314476       2.50490041        0      -0.00003343       0.00002053       0.00553215
Al      -0.00000156       1.80629224       5.01337791        1       0.00003451      -0.00002053       0.00552370
N        1.56429556       0.90314476       4.41849749        2      -0.00003618       0.00002131      -0.00553104
N       -0.00000156       1.80629224       1.91001999        3       0.00003515      -0.00002126      -0.00552489
