13
Lattice="7.26870274 0.0 0.0 3.634351370000001 6.294881225397555 0.0 3.634351370000001 2.0982937417991856 5.934870934989993" Properties=species:S:1:pos:R:3:spacegroup_kinds:I:1:forces:R:3 spacegroup="P 1" unit_cell=conventional occupancy="_JSON {\"0\": {\"Li\": 1}, \"1\": {\"Li\": 1}, \"2\": {\"Li\": 1}, \"3\": {\"Li\": 1}, \"4\": {\"Li\": 1}, \"5\": {\"Li\": 1}, \"6\": {\"P\": 1}, \"7\": {\"S\": 1}, \"8\": {\"S\": 1}, \"9\": {\"S\": 1}, \"10\": {\"S\": 1}, \"11\": {\"S\": 1}, \"12\": {\"Cl\": 1}}" energy=-53.3634147644043 free_energy=-53.3634147644043 stress="-0.0007941938238218427 -2.427991319109424e-07 -1.6527314983250108e-07 -2.427991319109424e-07 -0.0007939481292851269 -1.1867015814459592e-07 -1.6527314983250108e-07 -1.1867015814459592e-07 -0.0007939063361845911" pbc="T T T"
Li       9.25387995       7.24703237       3.10460814        0       0.00422531      -0.00243432       0.00344834
Li      12.55222827       5.34273008       5.79769826        1      -0.00421101       0.00243254      -0.00344105
Li       9.25387995       5.34273008       5.79769826        2       0.00422451       0.00243900      -0.00344690
Li      12.55222827       7.24703237       3.10460814        3      -0.00421184      -0.00243089       0.00344087
Li      10.90305411       4.39057894       3.10460814        4       0.00000242       0.00487652       0.00344799
Li      10.90305411       8.19918351       5.79769826        5       0.00000194      -0.00486278      -0.00344113
P        7.26870274       4.19658748       2.96743547        6       0.00008638       0.00004587       0.00003669
S        7.26870637       6.13578650       2.28182731        7      -0.00001876      -0.01090989       0.00384741
S        8.94810016       3.22699113       2.28182731        8      -0.00945800       0.00544026       0.00384699
S        5.58931258       3.22699113       2.28182731        9       0.00937777       0.00541249       0.00383030
S        7.26870637       4.19658958       5.02426588       10      -0.00001915      -0.00000934      -0.01156968
S       10.90305411       6.29488123       4.45115320       11      -0.00000140      -0.00000101      -0.00000088
Cl       0.00000000       0.00000000       0.00000000       12       0.00000183       0.00000161       0.00000105
