32
Lattice="6.17176593 0.0 0.0 0.0 8.01859859 0.0 0.0 0.0 13.03281824" Properties=species:S:1:pos:R:3:spacegroup_kinds:I:1:momenta:R:3:forces:R:3 spacegroup="P 1" unit_cell=conventional occupancy="_JSON {\"0\": {\"Li\": 1}, \"1\": {\"Li\": 1}, \"2\": {\"Li\": 1}, \"3\": {\"Li\": 1}, \"4\": {\"Li\": 1}, \"5\": {\"Li\": 1}, \"6\": {\"Li\": 1}, \"7\": {\"Li\": 1}, \"8\": {\"Li\": 1}, \"9\": {\"Li\": 1}, \"10\": {\"Li\": 1}, \"11\": {\"Li\": 1}, \"12\": {\"P\": 1}, \"13\": {\"P\": 1}, \"14\": {\"P\": 1}, \"15\": {\"P\": 1}, \"16\": {\"S\": 1}, \"17\": {\"S\": 1}, \"18\": {\"S\": 1}, \"19\": {\"S\": 1}, \"20\": {\"S\": 1}, \"21\": {\"S\": 1}, \"22\": {\"S\": 1}, \"23\": {\"S\": 1}, \"24\": {\"S\": 1}, \"25\": {\"S\": 1}, \"26\": {\"S\": 1}, \"27\": {\"S\": 1}, \"28\": {\"S\": 1}, \"29\": {\"S\": 1}, \"30\": {\"S\": 1}, \"31\": {\"S\": 1}}" energy=-140.1991729736328 free_energy=-140.1991729736328 stress="-0.0026668873615562916 -0.0006604127120226622 -0.0001867288665380329 -0.0006604127120226622 -0.004038537386804819 -0.0014771467540413141 -0.0001867288665380329 -0.0014771467540413141 -0.0026376433670520782" pbc="T T T"
Li       2.35770803       0.33246270       4.30542149        0      -0.28655518       0.07353132       0.25216902       0.05501580      -0.13663615       0.11372619
Li       3.74377152       7.72772846       8.77410797        1      -0.05388831      -0.21081692       0.07433070      -0.00714546      -0.11331410      -0.21993461
Li       5.51033801       7.70552329       2.16032870        2       0.19746618       0.00562563      -0.21648812       0.01672340       0.10428693       0.11149216
Li       0.69487126       0.25628241      10.84390601        3       0.08999859       0.12000193      -0.01633862       0.01357209       0.03470535       0.05973335
Li       3.83733056       4.18512935       8.64989250        4       0.15336672       0.14431840      -0.06195689      -0.05448816       0.10546792       0.04114969
Li       2.44684873       3.81822179       4.33707624        5       0.14989627      -0.01120195      -0.08978645      -0.05581132      -0.10622758      -0.05613881
Li       0.76119768       3.68941060      10.90205522        6       0.05729673      -0.01150037       0.08454965      -0.12145969       0.16888605      -0.17436162
Li       5.51808832       4.30556114       2.11123991        7      -0.19753634      -0.03929782      -0.07990873      -0.08230283      -0.05874110       0.10550804
Li       3.16059708      -0.00121951      -0.03313093        8       0.24871051      -0.01186510      -0.07137573      -0.10690978       0.10735805       0.15445250
Li      -0.05362174       0.07865081       6.55543901        9      -0.24011149       0.29965637      -0.24731943      -0.07888094      -0.03161403      -0.06043643
Li       2.99830588       4.09563492      -0.03978639       10       0.00242290       0.34935859       0.18259638      -0.02043399      -0.00218139       0.07778712
Li       0.02590305       4.01276986       6.41760056       11       0.06333987      -0.00154796      -0.05521934       0.09597558       0.03447067       0.14148277
P        0.91745649       1.99248924       1.18060825       12       0.28644006       0.12277668       0.02002399       0.08411209       0.19393343       0.26138079
P        5.23798238       6.00285684      11.84924727       13      -0.06789189      -0.62063954       0.05826252       0.04924098       0.22907719       0.01180708
P        3.99303268       6.02543922       5.33449626       14      -0.35966736       0.41181655      -0.19242158       0.50626767       0.03607742       0.38860613
P        2.15284563       1.98602831       7.66916024       15      -0.06093703      -0.81066913      -0.02702729      -0.21149917      -0.26445201      -0.23164795
S        5.05461439       2.00590827       1.32893323       16      -0.57821831      -0.01566303      -0.11800293       0.11010109      -0.13590823      -0.01611513
S        1.09753510       6.02981591      11.77218339       17       0.03264317       0.17764963       0.37197206       0.15486066      -0.05933866      -0.13611102
S        1.96914754       6.03225915       5.25014994       18      -0.20630281      -0.05414116       0.09921402      -0.05562738      -0.05363331      -0.10732058
S        4.18354146       1.92825289       7.82254259       19      -0.34069585      -0.74763528       0.57958450       0.04023863       0.10337406       0.02245290
S        1.67658546       2.00813764      12.27883803       20       0.12021311       0.10211351       0.63514881       0.11060028      -0.15733525      -0.11791170
S        4.50395897       6.01233694       0.75991505       21      -0.28718500       0.06346222      -0.54369728      -0.20892043       0.07541757       0.10920371
S        4.79285595       5.99636538       7.30181393       22       0.81139550      -0.22973570       0.59086219      -0.15505148       0.02071136      -0.30506349
S        1.44564320       2.03092356       5.67336140       23       0.53879670       0.20586331      -0.92092541      -0.05671220      -0.04087145       0.46860731
S        1.72589508       0.31586199       2.04437951       24       0.69532709       0.21884650       0.17497805      -0.13873389      -0.14445038      -0.27044991
S        4.49526636       7.73638191      10.99872146       25       0.55664440       0.21640768      -0.01581417       0.11853123      -0.10189230       0.17411323
S        4.69932253       7.78085710       4.52282556       26      -0.53882062       0.75647465      -0.21148478       0.10219699      -0.15717819      -0.07800753
S        1.38481071       0.27121883       8.54113154       27      -0.51131805      -0.29223128       0.04266258       0.06147037       0.14655711      -0.24965830
S        4.51901452       4.28538245      11.04149523       28      -0.29170548      -0.52766265       0.63500395      -0.10571451      -0.26312655      -0.22854938
S        1.65749104       3.72670172       2.02178857       29      -0.20347377       0.35201595       0.32238177       0.07395256       0.01417186      -0.06510898
S        1.37115369       3.68780952       8.47558390       30       0.18216454      -0.03024081      -0.51433576       0.12120900       0.18287045       0.20405185
S        4.80655164       4.30496887       4.49884364       31       0.03818518      -0.00507017      -0.74163772      -0.25437707       0.26953530      -0.12873966
