32
Lattice="6.17176593 0.0 0.0 0.0 8.01859859 0.0 0.0 0.0 13.03281824" Properties=species:S:1:pos:R:3:spacegroup_kinds:I:1:momenta:R:3:forces:R:3 spacegroup="P 1" unit_cell=conventional occupancy="_JSON {\"0\": {\"Li\": 1}, \"1\": {\"Li\": 1}, \"2\": {\"Li\": 1}, \"3\": {\"Li\": 1}, \"4\": {\"Li\": 1}, \"5\": {\"Li\": 1}, \"6\": {\"Li\": 1}, \"7\": {\"Li\": 1}, \"8\": {\"Li\": 1}, \"9\": {\"Li\": 1}, \"10\": {\"Li\": 1}, \"11\": {\"Li\": 1}, \"12\": {\"P\": 1}, \"13\": {\"P\": 1}, \"14\": {\"P\": 1}, \"15\": {\"P\": 1}, \"16\": {\"S\": 1}, \"17\": {\"S\": 1}, \"18\": {\"S\": 1}, \"19\": {\"S\": 1}, \"20\": {\"S\": 1}, \"21\": {\"S\": 1}, \"22\": {\"S\": 1}, \"23\": {\"S\": 1}, \"24\": {\"S\": 1}, \"25\": {\"S\": 1}, \"26\": {\"S\": 1}, \"27\": {\"S\": 1}, \"28\": {\"S\": 1}, \"29\": {\"S\": 1}, \"30\": {\"S\": 1}, \"31\": {\"S\": 1}}" energy=-140.31869506835938 free_energy=-140.31869506835938 stress="-0.007170621771365404 -3.757232747148009e-09 1.1571861691095364e-08 -3.757232747148009e-09 -0.008259383030235767 -5.160242455559683e-09 1.1571861691095364e-08 -5.160242455559683e-09 -0.005266287829726934" pbc="T T T"
Li       2.40329652       0.26860172       4.33400832        0       0.00000000       0.00000000       0.00000000      -0.02603573       0.00549141      -0.00432145
Li       3.76846941       7.74999687       8.69880992        1       0.00000000       0.00000000       0.00000000       0.02603657      -0.00549156       0.00432331
Li       5.48917948       7.74999687       2.18240080        2       0.00000000       0.00000000       0.00000000      -0.02603598      -0.00549090       0.00432320
Li       0.68258645       0.26860172      10.85041744        3       0.00000000       0.00000000       0.00000000       0.02603542       0.00549183      -0.00431982
Li       3.76846941       4.27790102       8.69880992        4       0.00000000       0.00000000       0.00000000       0.02603638       0.00549184       0.00432295
Li       2.40329652       3.74069757       4.33400832        5       0.00000000       0.00000000       0.00000000      -0.02603548      -0.00549130      -0.00432089
Li       0.68258645       3.74069757      10.85041744        6       0.00000000       0.00000000       0.00000000       0.02603617      -0.00549218      -0.00431945
Li       5.48917948       4.27790102       2.18240080        7       0.00000000       0.00000000       0.00000000      -0.02603632       0.00549090       0.00432284
Li       3.08588297       0.00000000       0.00000000        8       0.00000000       0.00000000       0.00000000      -0.00000003      -0.00000109      -0.00000011
Li       0.00000000       0.00000000       6.51640912        9       0.00000000       0.00000000       0.00000000       0.00000045       0.00000064      -0.00000108
Li       3.08588297       4.00929929       0.00000000       10       0.00000000       0.00000000       0.00000000      -0.00000024       0.00000026      -0.00000104
Li       0.00000000       4.00929929       6.51640912       11       0.00000000       0.00000000       0.00000000       0.00000011       0.00000027       0.00000000
P        0.94051010       2.00464965       1.16601784       12       0.00000000       0.00000000       0.00000000      -0.02067246      -0.00000087       0.02375992
P        5.23125583       6.01394894      11.86680040       13       0.00000000       0.00000000       0.00000000       0.02066552      -0.00000079      -0.02375820
P        4.02639307       6.01394894       5.35039128       14       0.00000000       0.00000000       0.00000000      -0.02066774       0.00000077      -0.02375575
P        2.14537286       2.00464965       7.68242696       15       0.00000000       0.00000000       0.00000000       0.02066809      -0.00000137       0.02375766
S        5.08970823       2.00464965       1.30575389       16       0.00000000       0.00000000       0.00000000      -0.25450605       0.00000115       0.01678948
S        1.08205770       6.01394894      11.72706435       17       0.00000000       0.00000000       0.00000000       0.25450736       0.00000026      -0.01679149
S        2.00382526       6.01394894       5.21065523       18       0.00000000       0.00000000       0.00000000      -0.25450537       0.00000056      -0.01679166
S        4.16794067       2.00464965       7.82216301       19       0.00000000       0.00000000       0.00000000       0.25449988      -0.00000004       0.01678940
S        1.68132889       2.00464965      12.25955363       20       0.00000000       0.00000000       0.00000000       0.10912288       0.00000001      -0.16719688
S        4.49043704       6.01394894       0.77326461       21       0.00000000       0.00000000       0.00000000      -0.10911999      -0.00000007       0.16718082
S        4.76721186       6.01394894       7.28967373       22       0.00000000       0.00000000       0.00000000       0.10912063       0.00000020       0.16717947
S        1.40455407       2.00464965       5.74314451       23       0.00000000       0.00000000       0.00000000      -0.10911948       0.00000016      -0.16718143
S        1.67233151       0.29287049       2.00524453       24       0.00000000       0.00000000       0.00000000       0.13957797      -0.21272524       0.08709948
S        4.49943442       7.72572810      11.02757371       25       0.00000000       0.00000000       0.00000000      -0.13957565       0.21272470      -0.08709219
S        4.75821447       7.72572810       4.51116459       26       0.00000000       0.00000000       0.00000000       0.13957530       0.21272527      -0.08709247
S        1.41355146       0.29287049       8.52165365       27       0.00000000       0.00000000       0.00000000      -0.13957573      -0.21272078       0.08709186
S        4.49943442       4.30216979      11.02757371       28       0.00000000       0.00000000       0.00000000      -0.13957636      -0.21272492      -0.08709455
S        1.67233151       3.71642880       2.00524453       29       0.00000000       0.00000000       0.00000000       0.13957813       0.21272641       0.08709954
S        1.41355146       3.71642880       8.52165365       30       0.00000000       0.00000000       0.00000000      -0.13957566       0.21272063       0.08709112
S        4.75821447       4.30216979       4.51116459       31       0.00000000       0.00000000       0.00000000       0.13957728      -0.21272622      -0.08709259
32
Lattice="6.17176593 0.0 0.0 0.0 8.01859859 0.0 0.0 0.0 13.03281824" Properties=species:S:1:pos:R:3:spacegroup_kinds:I:1:momenta:R:3:forces:R:3 spacegroup="P 1" unit_cell=conventional occupancy="_JSON {\"0\": {\"Li\": 1}, \"1\": {\"Li\": 1}, \"2\": {\"Li\": 1}, \"3\": {\"Li\": 1}, \"4\": {\"Li\": 1}, \"5\": {\"Li\": 1}, \"6\": {\"Li\": 1}, \"7\": {\"Li\": 1}, \"8\": {\"Li\": 1}, \"9\": {\"Li\": 1}, \"10\": {\"Li\": 1}, \"11\": {\"Li\": 1}, \"12\": {\"P\": 1}, \"13\": {\"P\": 1}, \"14\": {\"P\": 1}, \"15\": {\"P\": 1}, \"16\": {\"S\": 1}, \"17\": {\"S\": 1}, \"18\": {\"S\": 1}, \"19\": {\"S\": 1}, \"20\": {\"S\": 1}, \"21\": {\"S\": 1}, \"22\": {\"S\": 1}, \"23\": {\"S\": 1}, \"24\": {\"S\": 1}, \"25\": {\"S\": 1}, \"26\": {\"S\": 1}, \"27\": {\"S\": 1}, \"28\": {\"S\": 1}, \"29\": {\"S\": 1}, \"30\": {\"S\": 1}, \"31\": {\"S\": 1}}" energy=-140.3183135986328 free_energy=-140.3183135986328 stress="-0.007162927649915218 -2.2072079445933923e-05 -3.275750714237802e-05 -2.2072079445933923e-05 -0.008335963822901249 -4.2537267290754244e-05 -3.275750714237802e-05 -4.2537267290754244e-05 -0.005288843065500259" pbc="T T T"
Li       2.40305608       0.26867971       4.33097816        0       0.00772148       0.01588656      -0.17876612      -0.02483088       0.00716753       0.00391983
Li       3.76838805       7.75148947       8.69662901        1       0.00538166       0.05990651      -0.09114229       0.02809752      -0.00883321       0.00625187
Li       5.48862150       7.74993552       2.18187499        2      -0.04001739      -0.00219676      -0.03116009      -0.02550194      -0.00546760       0.00591047
Li       0.68302523       0.26896076      10.84993434        3       0.04046093       0.01456721      -0.02050925       0.02518499       0.00529487      -0.00328787
Li       3.76884642       4.27709589       8.69656575        4       0.03061836      -0.00159551      -0.11057182       0.02542000       0.00590059       0.00843481
Li       2.40247213       3.74115210       4.33418170        5      -0.06695696       0.01882017       0.00606787      -0.02288450      -0.00616797      -0.00397192
Li       0.68393670       3.74061637      10.85244624        6       0.10659734      -0.06548254       0.07818721       0.02212668      -0.00366240      -0.00825832
Li       5.49057371       4.27598562       2.18022114        7       0.07500925      -0.02844492      -0.08422614      -0.03154919       0.01137790       0.00910020
Li       3.08413939       0.00039554      -0.00011630        8      -0.00437700       0.03105356       0.00102582       0.00191332      -0.00151431      -0.00187722
Li       0.00123187      -0.00068384       6.51560465        9       0.05311681       0.03183323      -0.04667617      -0.00069628       0.00038534      -0.00121718
Li       3.08462945       4.01043707      -0.00208504       10      -0.12147534       0.06106494      -0.09121581      -0.00020861       0.00002204       0.00174260
Li       0.00210130       4.00887225       6.51692809       11       0.06270703       0.04120781      -0.02630091      -0.00457246       0.00109733      -0.00481981
P        0.94079321       2.00498185       1.16712363       12       0.01215735       0.12363987       0.22007199      -0.01904120      -0.01732793       0.00466029
P        5.23097989       6.01463081      11.86677609       13      -0.16688411       0.14431009       0.14752405       0.01655324      -0.01016838      -0.02493569
P        4.02586760       6.01423580       5.35070305       14      -0.03511679       0.06374740       0.11732424      -0.00228240      -0.00539457      -0.04116491
P        2.14472859       2.00406832       7.68287371       15      -0.11128451      -0.16110347      -0.05661924       0.04654223      -0.00261758       0.00431069
S        5.09053370       2.00492023       1.30579758       16      -0.02034350       0.10710620       0.17492569      -0.26364851      -0.00436109       0.01673634
S        1.08201662       6.01414831      11.72800781       17       0.03500667       0.05374928       0.18479201       0.25378862       0.00246162      -0.01738364
S        2.00347569       6.01453600       5.21148338       18      -0.14321208       0.05936721       0.02176532      -0.25522801      -0.00218554      -0.01809881
S        4.16818676       2.00453037       7.82180314       19       0.09286028      -0.20841897      -0.14620814       0.24490099       0.00016569       0.01678422
S        1.68129688       2.00542235      12.25955658       20       0.02237710       0.13533192       0.06893162       0.10815095      -0.00694789      -0.15729973
S        4.48977171       6.01398103       0.77330262       21      -0.05897991      -0.09950803       0.03019168      -0.10812977       0.00085036       0.16498685
S        4.76785391       6.01369018       7.28902409       22       0.11257151       0.05042462      -0.19456889       0.10886580       0.00213409       0.17548181
S        1.40436880       2.00412791       5.74363146       23      -0.10648675      -0.06702539       0.03167276      -0.10794857      -0.00050478      -0.17382365
S        1.67267799       0.29319542       2.00684204       24       0.05145016       0.05670740       0.29567515       0.13638297      -0.21197551       0.07696409
S        4.49924508       7.72575341      11.02660199       25      -0.05644702      -0.10958144      -0.19842551      -0.13866179       0.21321709      -0.08512546
S        4.75792858       7.72692394       4.51135172       26      -0.04992395       0.24609068       0.06408892       0.13395259       0.19956151      -0.08368268
S        1.41368656       0.29328407       8.52119337       27      -0.00495843       0.02640237      -0.09457961      -0.14677839      -0.23315230       0.09777237
S        4.49946188       4.30192069      11.02769865       28       0.07848664       0.04121103       0.07981301      -0.13461082      -0.20499036      -0.08839937
S        1.67216498       3.71576149       2.00448077       29       0.05018877      -0.17533422      -0.09789299       0.15258932       0.23316482       0.09965647
S        1.41296794       3.71424634       8.52099891       30      -0.09719218      -0.40704014      -0.13455393      -0.14531432       0.23780558       0.10469519
S        4.75927153       4.30159800       4.51142715       31       0.24694456      -0.05669669       0.08135955       0.12741823      -0.19533487      -0.08406205
32
Lattice="6.17176593 0.0 0.0 0.0 8.01859859 0.0 0.0 0.0 13.03281824" Properties=species:S:1:pos:R:3:spacegroup_kinds:I:1:momenta:R:3:forces:R:3 spacegroup="P 1" unit_cell=conventional occupancy="_JSON {\"0\": {\"Li\": 1}, \"1\": {\"Li\": 1}, \"2\": {\"Li\": 1}, \"3\": {\"Li\": 1}, \"4\": {\"Li\": 1}, \"5\": {\"Li\": 1}, \"6\": {\"Li\": 1}, \"7\": {\"Li\": 1}, \"8\": {\"Li\": 1}, \"9\": {\"Li\": 1}, \"10\": {\"Li\": 1}, \"11\": {\"Li\": 1}, \"12\": {\"P\": 1}, \"13\": {\"P\": 1}, \"14\": {\"P\": 1}, \"15\": {\"P\": 1}, \"16\": {\"S\": 1}, \"17\": {\"S\": 1}, \"18\": {\"S\": 1}, \"19\": {\"S\": 1}, \"20\": {\"S\": 1}, \"21\": {\"S\": 1}, \"22\": {\"S\": 1}, \"23\": {\"S\": 1}, \"24\": {\"S\": 1}, \"25\": {\"S\": 1}, \"26\": {\"S\": 1}, \"27\": {\"S\": 1}, \"28\": {\"S\": 1}, \"29\": {\"S\": 1}, \"30\": {\"S\": 1}, \"31\": {\"S\": 1}}" energy=-140.31741333007812 free_energy=-140.31741333007812 stress="-0.006966846529394388 -9.073626279132441e-05 -0.00013466933160088956 -9.073626279132441e-05 -0.008390652015805244 -7.013203139649704e-05 -0.00013466933160088956 -7.013203139649704e-05 -0.00544072687625885" pbc="T T T"
Li       2.40295999       0.27068280       4.32590002        0       0.01177407       0.08739044      -0.16751834      -0.02474992       0.00478855       0.01711639
Li       3.76846275       7.75412714       8.69361208        1       0.00196924       0.06426131      -0.05811819       0.03022677      -0.01684399       0.00932732
Li       5.48526271       7.74797616       2.18181835        2      -0.16934110      -0.13136269       0.02272379      -0.01825696      -0.00000831       0.00899778
Li       0.68453174       0.27004297      10.85067980        3       0.02417421      -0.00700272       0.03234583       0.02227245      -0.00040288      -0.00488599
Li       3.76997246       4.27762056       8.69262716        4       0.02320590      -0.03546388      -0.14937524       0.02073275       0.00114148       0.01570192
Li       2.40112979       3.74310448       4.33548075        5       0.00104089       0.04541167       0.00612555      -0.01545205      -0.00725835      -0.00560539
Li       0.68784878       3.73867190      10.85440561        6       0.13731937      -0.08915066       0.03333057       0.01316549       0.00459324      -0.01227178
Li       5.49559646       4.27461774       2.17902846        7       0.17144965      -0.04193158      -0.02934322      -0.04379256       0.01794844       0.01318809
Li       3.08394351      -0.00048519      -0.00082948        8      -0.01440371      -0.07895202      -0.08699757      -0.00361411       0.00020324       0.00012921
Li       0.00268533       0.00227948       6.51886507        9       0.05339145       0.10592747       0.15115062      -0.00797881      -0.00334042      -0.01287490
Li       3.07914457       4.01178241      -0.00545253       10      -0.21650210       0.05270436      -0.14151710       0.00480252       0.00260100      -0.00173812
Li       0.00370600       4.00998571       6.51332218       11       0.03576276       0.03095413      -0.11983990      -0.00178265      -0.00003809      -0.00074815
P        0.94012979       2.00515569       1.16944949       12      -0.13026469       0.00109457       0.23836089      -0.00968274      -0.04999501      -0.02615451
P        5.22976969       6.01643246      11.86780096       13      -0.09954804       0.30403753       0.15853391       0.05752165      -0.04540545      -0.04183029
P        4.02503793       6.01548663       5.35233069       14      -0.22084056       0.15683492       0.25200081      -0.00036106      -0.02386602      -0.09540062
P        2.14494708       2.00367556       7.68183784       15       0.13727155       0.13282020      -0.14654601       0.05955702      -0.00306937       0.00907931
S        5.09071796       2.00565357       1.30720051       16       0.01546219       0.00952436       0.12929287      -0.27169162      -0.01068682       0.01786657
S        1.08342660       6.01424715      11.72928894       17       0.30077854       0.01203690       0.13949397       0.22140688       0.00845201      -0.01444764
S        2.00192927       6.01513486       5.21156837       18      -0.29156353       0.10037158       0.06011726      -0.24014826      -0.00212477      -0.01647136
S        4.16914835       2.00278061       7.82028918       19       0.11252224      -0.19608243      -0.16339312       0.23578198       0.01136558       0.01764711
S        1.68022470       2.00471101      12.25971051       20      -0.26915529      -0.17499888       0.00299758       0.10682824      -0.01134087      -0.13541895
S        4.48920686       6.01302408       0.77358759       21      -0.07777008      -0.03647363       0.16014365      -0.11209552       0.00307350       0.17156997
S        4.76839300       6.01305020       7.28674746       22       0.01055882      -0.02723784      -0.31248509       0.11538921       0.00962036       0.21619150
S        1.40422585       2.00379737       5.74425804       23       0.01974863      -0.01015190       0.16096941      -0.10842776      -0.00002066      -0.19473250
S        1.67333227       0.29343415       2.00952191       24       0.10747913      -0.04003349       0.29736253       0.12458674      -0.20835234       0.05957358
S        4.49868481       7.72518085      11.02546325       25      -0.10253587      -0.01832780      -0.14120039      -0.13832039       0.22806561      -0.08612560
S        4.75631066       7.72861692       4.51212860       26      -0.18378163       0.24940600       0.07596169       0.13413078       0.19229129      -0.07875209
S        1.41464494       0.29341351       8.52037908       27       0.17206045      -0.09325835      -0.06868250      -0.15085353      -0.24607733       0.10956576
S        4.50094725       4.30259771      11.02698476       28       0.19890530       0.02050294      -0.19715287      -0.13371362      -0.19814560      -0.08601278
S        1.67267886       3.71439403       2.00344980       29       0.19539148      -0.23623383      -0.12944525       0.16906956       0.25966972       0.11778693
S        1.41085531       3.71190409       8.51983619       30      -0.35075576      -0.33660922      -0.18607367      -0.13637568       0.25196731       0.11234853
S        4.76185316       4.30165070       4.51209666       31       0.39619647       0.17999253       0.17677752       0.10182495      -0.16880509      -0.08261928
32
Lattice="6.17176593 0.0 0.0 0.0 8.01859859 0.0 0.0 0.0 13.03281824" Properties=species:S:1:pos:R:3:spacegroup_kinds:I:1:momenta:R:3:forces:R:3 spacegroup="P 1" unit_cell=conventional occupancy="_JSON {\"0\": {\"Li\": 1}, \"1\": {\"Li\": 1}, \"2\": {\"Li\": 1}, \"3\": {\"Li\": 1}, \"4\": {\"Li\": 1}, \"5\": {\"Li\": 1}, \"6\": {\"Li\": 1}, \"7\": {\"Li\": 1}, \"8\": {\"Li\": 1}, \"9\": {\"Li\": 1}, \"10\": {\"Li\": 1}, \"11\": {\"Li\": 1}, \"12\": {\"P\": 1}, \"13\": {\"P\": 1}, \"14\": {\"P\": 1}, \"15\": {\"P\": 1}, \"16\": {\"S\": 1}, \"17\": {\"S\": 1}, \"18\": {\"S\": 1}, \"19\": {\"S\": 1}, \"20\": {\"S\": 1}, \"21\": {\"S\": 1}, \"22\": {\"S\": 1}, \"23\": {\"S\": 1}, \"24\": {\"S\": 1}, \"25\": {\"S\": 1}, \"26\": {\"S\": 1}, \"27\": {\"S\": 1}, \"28\": {\"S\": 1}, \"29\": {\"S\": 1}, \"30\": {\"S\": 1}, \"31\": {\"S\": 1}}" energy=-140.31539916992188 free_energy=-140.31539916992188 stress="-0.006697079632431269 -0.0001031205101753585 -0.0003013978130184114 -0.0001031205101753585 -0.008311406709253788 -0.0001452086289646104 -0.0003013978130184114 -0.0001452086289646104 -0.005579975433647633" pbc="T T T"
Li       2.40632587       0.27414982       4.31840590        0       0.08552843       0.10064219      -0.23893808      -0.03023314       0.00084150       0.03638491
Li       3.77030060       7.75656563       8.69375565        1       0.12620074       0.09511627       0.07670890       0.02449152      -0.02415256       0.00449637
Li       5.48125869       7.74305719       2.18410240        2      -0.06666934      -0.10114858       0.05430447      -0.00791086       0.01375458       0.00959807
Li       0.68625804       0.27038826      10.85373561        3       0.04541942       0.00301209       0.12877555       0.02032379      -0.00554727      -0.01332575
Li       3.77053190       4.27784531       8.68849555        4       0.00843567      -0.01366090      -0.13989058       0.01528273      -0.00208304       0.02332191
Li       2.39990911       3.74576058       4.33685654        5      -0.03647530       0.11391516       0.04696083      -0.00609115      -0.00816924      -0.00993793
Li       0.69168163       3.73457638      10.85741736        6       0.10928758      -0.14125398       0.20029120       0.00134249       0.01747478      -0.01878024
Li       5.50342380       4.27276412       2.17813862        7       0.29872252      -0.05565907      -0.00652761      -0.06359454       0.02427936       0.01589089
Li       3.08349926      -0.00415694      -0.00257387        8       0.07203447      -0.03294658      -0.10316991      -0.01042976       0.00466102       0.00487084
Li       0.00473004       0.00739761       6.52662726        9       0.07215521       0.13053249       0.26787625      -0.02125498      -0.01168435      -0.03328114
Li       3.07153382       4.01358392      -0.00872451       10      -0.27248186       0.07726371      -0.06003958       0.01520181       0.00708511      -0.00801921
Li       0.00794135       4.01064143       6.50943906       11       0.18211980      -0.01741236      -0.09545203      -0.00504277       0.00451810       0.00076832
P        0.93980279       2.00445583       1.17067571       12       0.05107509      -0.20431790       0.12222589      -0.02542094      -0.07649185      -0.04762439
P        5.22948401       6.01930154      11.86879529       13       0.01697585       0.37584754       0.19902915       0.08568698      -0.10428350      -0.05911343
P        4.02305402       6.01650002       5.35479776       14      -0.27690101       0.14563524       0.28487882       0.01086941      -0.03535385      -0.15520044
P        2.14604436       2.00523666       7.67942158       15       0.14957034       0.23517912      -0.42336495       0.05028090      -0.05093889       0.05300869
S        5.09025787       2.00567416       1.30854725       16      -0.12416154       0.09134930       0.14303352      -0.26195174      -0.01900880       0.01843343
S        1.08598653       6.01371245      11.73076193       17       0.39099683      -0.16330213       0.19539982       0.18328746       0.01681651      -0.01111878
S        1.99962568       6.01521991       5.21197214       18      -0.30312087      -0.07040895       0.15771823      -0.22855094       0.00259328      -0.01659747
S        4.17017652       2.00084652       7.81925756       19       0.17909282      -0.37474785      -0.11057466       0.23279025       0.02773657       0.01789013
S        1.67820845       2.00404054      12.25878233       20      -0.20083722      -0.12315549      -0.22361678       0.11181577      -0.02040999      -0.11131707
S        4.48921224       6.01265577       0.77477711       21       0.07825605      -0.04302531       0.11926335      -0.11235344       0.00154616       0.16013104
S        4.76799912       6.01237453       7.28458293       22      -0.08862422      -0.16565029      -0.31798537       0.12406642       0.01599583       0.26307243
S        1.40491613       2.00457995       5.74494774       23       0.20095600       0.28541359       0.02166544      -0.11107120      -0.00251297      -0.23105696
S        1.67425697       0.29394350       2.01235229       24       0.10439741       0.18270373       0.34168215       0.11367339      -0.21057284       0.03745405
S        4.49798210       7.72487399      11.02301949       25      -0.25602392       0.00070686      -0.43506575      -0.13091978       0.23835751      -0.07450657
S        4.75442444       7.72989873       4.51310917       26      -0.29905149       0.03753152       0.11064635       0.13685074       0.18550336      -0.06557245
S        1.41525192       0.29275882       8.52011708       27      -0.13263904      -0.07353063       0.05700196      -0.13408804      -0.22077450       0.10605980
S        4.50279367       4.30312608      11.02522448       28       0.29153768       0.09671720      -0.13612870      -0.12649170      -0.17101005      -0.06898279
S        1.67261110       3.71254343       2.00203499       29      -0.06827750      -0.18159647      -0.23088816       0.19194952       0.28433156       0.13490914
S        1.40666388       3.70926810       8.51896935       30      -0.75078773      -0.44839132      -0.09676746      -0.11851723       0.26787952       0.11946581
S        4.76488806       4.30295635       4.51261842       31       0.41328912       0.23864179       0.09094773       0.07600913      -0.15038100      -0.08132117
32
Lattice="6.17176593 0.0 0.0 0.0 8.01859859 0.0 0.0 0.0 13.03281824" Properties=species:S:1:pos:R:3:spacegroup_kinds:I:1:momenta:R:3:forces:R:3 spacegroup="P 1" unit_cell=conventional occupancy="_JSON {\"0\": {\"Li\": 1}, \"1\": {\"Li\": 1}, \"2\": {\"Li\": 1}, \"3\": {\"Li\": 1}, \"4\": {\"Li\": 1}, \"5\": {\"Li\": 1}, \"6\": {\"Li\": 1}, \"7\": {\"Li\": 1}, \"8\": {\"Li\": 1}, \"9\": {\"Li\": 1}, \"10\": {\"Li\": 1}, \"11\": {\"Li\": 1}, \"12\": {\"P\": 1}, \"13\": {\"P\": 1}, \"14\": {\"P\": 1}, \"15\": {\"P\": 1}, \"16\": {\"S\": 1}, \"17\": {\"S\": 1}, \"18\": {\"S\": 1}, \"19\": {\"S\": 1}, \"20\": {\"S\": 1}, \"21\": {\"S\": 1}, \"22\": {\"S\": 1}, \"23\": {\"S\": 1}, \"24\": {\"S\": 1}, \"25\": {\"S\": 1}, \"26\": {\"S\": 1}, \"27\": {\"S\": 1}, \"28\": {\"S\": 1}, \"29\": {\"S\": 1}, \"30\": {\"S\": 1}, \"31\": {\"S\": 1}}" energy=-140.31021118164062 free_energy=-140.31021118164062 stress="-0.006407259497791529 -0.00012117970618419349 -0.0005193380638957024 -0.00012117970618419349 -0.008314153179526329 -0.0002896107325796038 -0.0005193380638957024 -0.0002896107325796038 -0.0056389132514595985" pbc="T T T"
Li       2.40829130       0.27940932       4.31012136        0       0.04625549       0.22255081      -0.22880898      -0.03143782      -0.00655986       0.06065078
Li       3.77290787       7.75929262       8.69800740        1       0.00129136       0.02969317       0.15520153       0.01355956      -0.03595346      -0.01064644
Li       5.48013080       7.73841986       2.18556362        2       0.06975835      -0.14651034       0.04889224      -0.00403825       0.02714964       0.01329512
Li       0.68740212       0.27063404      10.85873738        3       0.12504434      -0.03321978       0.11051368       0.01733289      -0.01182256      -0.02573187
Li       3.77063929       4.27482665       8.68333462        4       0.05149362      -0.17744343      -0.13461213       0.01196818       0.00091484       0.03130274
Li       2.40053213       3.75143993       4.33805106        5       0.06533216       0.17800735       0.04306313      -0.00054571      -0.01335945      -0.01699465
Li       0.69529775       3.73000611      10.86346383        6       0.12843782      -0.11880678       0.12712297      -0.01077188       0.03043974      -0.03155735
Li       5.51527939       4.27231580       2.17558444        7       0.38368020       0.00685597      -0.13030063      -0.09133924       0.03076479       0.02272825
Li       3.08385155      -0.00749839      -0.00612094        8      -0.01821371      -0.07518275      -0.05667614      -0.01943702       0.00937387       0.01465330
Li       0.00463094       0.01214146       6.53533694        9       0.00332566       0.13210683       0.20165458      -0.03199312      -0.01839154      -0.05073711
Li       3.06271222       4.01403502      -0.01108559       10      -0.21858056       0.02087174      -0.03782953       0.03062158       0.01449833      -0.01771474
Li       0.01419861       4.01057528       6.50486932       11       0.14311774       0.01052850      -0.17087067      -0.01273863       0.01444821       0.00175297
P        0.93916688       2.00328525       1.17188980       12      -0.26515982      -0.03573417       0.14419135      -0.04178528      -0.08792664      -0.09027632
P        5.22911991       6.02228508      11.86987785       13       0.03950206       0.32469598       0.15290599       0.12424096      -0.15794152      -0.07634696
P        4.02059164       6.01724126       5.35633261       14      -0.30150962       0.13956409       0.15528138       0.03205487      -0.04494755      -0.18409932
P        2.14704597       2.00751994       7.67592641       15       0.11959356       0.36502831      -0.49124970       0.03389687      -0.13235582       0.11666372
S        5.08957712       2.00660212       1.31057250       16      -0.00552809       0.10447775       0.29067799      -0.25001445      -0.02988959       0.01628070
S        1.08961553       6.01225459      11.73186103       17       0.42718422      -0.27854510       0.14948082       0.12714052       0.03194921      -0.00682265
S        1.99728545       6.01530125       5.21368425       18      -0.38167213       0.10393308       0.34636693      -0.22595596       0.01052431      -0.02096377