32
Lattice="6.17176593 0.0 0.0 0.0 8.01859859 0.0 0.0 0.0 13.03281824" Properties=species:S:1:pos:R:3:spacegroup_kinds:I:1:forces:R:3 spacegroup="P 1" unit_cell=conventional occupancy="_JSON {\"0\": {\"Li\": 1}, \"1\": {\"Li\": 1}, \"2\": {\"Li\": 1}, \"3\": {\"Li\": 1}, \"4\": {\"Li\": 1}, \"5\": {\"Li\": 1}, \"6\": {\"Li\": 1}, \"7\": {\"Li\": 1}, \"8\": {\"Li\": 1}, \"9\": {\"Li\": 1}, \"10\": {\"Li\": 1}, \"11\": {\"Li\": 1}, \"12\": {\"P\": 1}, \"13\": {\"P\": 1}, \"14\": {\"P\": 1}, \"15\": {\"P\": 1}, \"16\": {\"S\": 1}, \"17\": {\"S\": 1}, \"18\": {\"S\": 1}, \"19\": {\"S\": 1}, \"20\": {\"S\": 1}, \"21\": {\"S\": 1}, \"22\": {\"S\": 1}, \"23\": {\"S\": 1}, \"24\": {\"S\": 1}, \"25\": {\"S\": 1}, \"26\": {\"S\": 1}, \"27\": {\"S\": 1}, \"28\": {\"S\": 1}, \"29\": {\"S\": 1}, \"30\": {\"S\": 1}, \"31\": {\"S\": 1}}" energy=-140.31869506835938 free_energy=-140.31869506835938 stress="-0.007170621771365404 -3.757232747148009e-09 1.1571861691095364e-08 -3.757232747148009e-09 -0.008259383030235767 -5.160242455559683e-09 1.1571861691095364e-08 -5.160242455559683e-09 -0.005266287829726934" pbc="T T T"
Li       2.40329652       0.26860172       4.33400832        0      -0.02603573       0.00549141      -0.00432145
Li       3.76846941       7.74999687       8.69880992        1       0.02603657      -0.00549156       0.00432331
Li       5.48917948       7.74999687       2.18240080        2      -0.02603598      -0.00549090       0.00432320
Li       0.68258645       0.26860172      10.85041744        3       0.02603542       0.00549183      -0.00431982
Li       3.76846941       4.27790102       8.69880992        4       0.02603638       0.00549184       0.00432295
Li       2.40329652       3.74069757       4.33400832        5      -0.02603548      -0.00549130      -0.00432089
Li       0.68258645       3.74069757      10.85041744        6       0.02603617      -0.00549218      -0.00431945
Li       5.48917948       4.27790102       2.18240080        7      -0.02603632       0.00549090       0.00432284
Li       3.08588297       0.00000000       0.00000000        8      -0.00000003      -0.00000109      -0.00000011
Li       0.00000000       0.00000000       6.51640912        9       0.00000045       0.00000064      -0.00000108
Li       3.08588297       4.00929929       0.00000000       10      -0.00000024       0.00000026      -0.00000104
Li       0.00000000       4.00929929       6.51640912       11       0.00000011       0.00000027       0.00000000
P        0.94051010       2.00464965       1.16601784       12      -0.02067246      -0.00000087       0.02375992
P        5.23125583       6.01394894      11.86680040       13       0.02066552      -0.00000079      -0.02375820
P        4.02639307       6.01394894       5.35039128       14      -0.02066774       0.00000077      -0.02375575
P        2.14537286       2.00464965       7.68242696       15       0.02066809      -0.00000137       0.02375766
S        5.08970823       2.00464965       1.30575389       16      -0.25450605       0.00000115       0.01678948
S        1.08205770       6.01394894      11.72706435       17       0.25450736       0.00000026      -0.01679149
S        2.00382526       6.01394894       5.21065523       18      -0.25450537       0.00000056      -0.01679166
S        4.16794067       2.00464965       7.82216301       19       0.25449988      -0.00000004       0.01678940
S        1.68132889       2.00464965      12.25955363       20       0.10912288       0.00000001      -0.16719688
S        4.49043704       6.01394894       0.77326461       21      -0.10911999      -0.00000007       0.16718082
S        4.76721186       6.01394894       7.28967373       22       0.10912063       0.00000020       0.16717947
S        1.40455407       2.00464965       5.74314451       23      -0.10911948       0.00000016      -0.16718143
S        1.67233151       0.29287049       2.00524453       24       0.13957797      -0.21272524       0.08709948
S        4.49943442       7.72572810      11.02757371       25      -0.13957565       0.21272470      -0.08709219
S        4.75821447       7.72572810       4.51116459       26       0.13957530       0.21272527      -0.08709247
S        1.41355146       0.29287049       8.52165365       27      -0.13957573      -0.21272078       0.08709186
S        4.49943442       4.30216979      11.02757371       28      -0.13957636      -0.21272492      -0.08709455
S        1.67233151       3.71642880       2.00524453       29       0.13957813       0.21272641       0.08709954
S        1.41355146       3.71642880       8.52165365       30      -0.13957566       0.21272063       0.08709112
S        4.75821447       4.30216979       4.51116459       31       0.13957728      -0.21272622      -0.08709259
