32
Lattice="6.17176593 0.0 0.0 0.0 8.01859859 0.0 0.0 0.0 13.03281824" Properties=species:S:1:pos:R:3:spacegroup_kinds:I:1:momenta:R:3:forces:R:3 spacegroup="P 1" unit_cell=conventional occupancy="_JSON {\"0\": {\"Li\": 1}, \"1\": {\"Li\": 1}, \"2\": {\"Li\": 1}, \"3\": {\"Li\": 1}, \"4\": {\"Li\": 1}, \"5\": {\"Li\": 1}, \"6\": {\"Li\": 1}, \"7\": {\"Li\": 1}, \"8\": {\"Li\": 1}, \"9\": {\"Li\": 1}, \"10\": {\"Li\": 1}, \"11\": {\"Li\": 1}, \"12\": {\"P\": 1}, \"13\": {\"P\": 1}, \"14\": {\"P\": 1}, \"15\": {\"P\": 1}, \"16\": {\"S\": 1}, \"17\": {\"S\": 1}, \"18\": {\"S\": 1}, \"19\": {\"S\": 1}, \"20\": {\"S\": 1}, \"21\": {\"S\": 1}, \"22\": {\"S\": 1}, \"23\": {\"S\": 1}, \"24\": {\"S\": 1}, \"25\": {\"S\": 1}, \"26\": {\"S\": 1}, \"27\": {\"S\": 1}, \"28\": {\"S\": 1}, \"29\": {\"S\": 1}, \"30\": {\"S\": 1}, \"31\": {\"S\": 1}}" energy=-139.16236877441406 free_energy=-139.16236877441406 stress="-0.009154291823506355 -0.0007798264268785715 -0.0014391507720574737 -0.0007798264268785715 -0.0032521060202270746 -0.004205118399113417 -0.0014391507720574737 -0.004205118399113417 -0.0029358533211052418" pbc="T T T"
Li       2.54722892       0.29870161       4.40021463        0       0.62832844       0.25260795      -0.97378777       0.18891734       0.42421439      -0.20761845
Li       3.81599063       7.66489385       8.56750555        1       0.51592560      -0.21699295      -0.22396319      -0.15083942      -0.04210886      -0.39787048
Li       5.75785461       7.57687182       2.15915153        2       0.05277723       0.35670024      -0.27246870      -0.36157420      -0.03753719      -0.37501162
Li       0.78202822       0.15574818      11.02370254        3      -0.28010632      -0.32988375       0.26398989      -0.00833589       0.05479275      -0.18772607
Li       3.60499890       4.25731618       8.75620258        4      -0.08540655       0.58098155      -0.01001116       0.14939192       0.07655881      -0.19610110
Li       2.08050635       4.05245826       4.30246560        5       0.12662002      -0.11624252       0.11610399       0.14198674      -0.06304052       0.19147256
Li       0.28242668       3.68482807      10.83376981        6      -0.87745009       0.47644499       0.26234292       0.54808736      -0.33880424       0.02854010
Li       5.33064651       4.33293007       1.96434090        7       0.02207140       0.43502686       0.29386116       0.06067089      -0.22211310       0.24539876
Li       3.72432687       0.53021000       0.04387840        8       0.27950638       0.95028739      -0.11968197      -0.32022870      -0.10391966      -0.07999873
Li       0.13474688       0.03653486       6.58424311        9       0.26750757      -0.23281724      -0.68414392       0.04477131      -0.11635844      -0.12151841
Li       2.78847388       4.33826959      -0.02050266       10      -0.21591188       0.10732038      -0.14786678      -0.18035972       0.08733624      -0.30205998
Li      -0.06507169       3.84951618       6.43824798       11       0.11839187      -0.03178606      -0.01524008      -0.38163638       0.09430273       0.16928282
P        1.03890256       2.05083356       1.22690906       12       0.52919637      -0.02228418      -2.33464309      -0.04472530      -1.67592454       0.21189091
P        4.95896204       5.98750807      11.78579117       13       0.51849171       0.89533199       0.66751448       1.16080570       0.15735629       0.38681901
P        4.24013535       6.09470593       5.38772336       14       0.94163129      -0.64822072       0.79916215       0.57909721      -0.25535804      -0.75324392
P        2.07719026       2.02911063       7.69772818       15       1.52893882      -0.31500424       0.25908771      -0.75169706      -1.23900747       1.03433609
S        5.18913503       1.85683535       1.37819042       16       0.03230493      -0.10520154       0.26462124      -0.25169680       0.67530107       0.18504797
S        0.86273894       5.83624795      11.56046596       17      -1.05756108      -0.24990052       1.27104510      -0.35846475       0.25537387       0.39395323
S        2.22022926       6.28713684       5.39345049       18       0.05074293       1.19581275      -0.97563583      -0.24926645      -0.11532484       0.24444927
S        4.05434803       1.93901732       7.79260202       19       0.03512497      -0.51632781       0.21053438       1.16981876       0.46877441      -0.03391750
S        1.71060681       2.07210686      12.32387501       20      -0.86663441      -0.58160745      -0.69934481       0.13604918      -0.09767439      -0.40158489
S        4.31599845       6.16878199       0.79890482       21      -0.41974437      -0.56138138      -0.46515972       0.14741300      -0.16034134      -1.03418398
S        5.14130331       6.00098002       7.28167437       22       0.03144237      -0.14381644       0.68875734      -0.53231311      -0.05219421      -0.23083098
S        1.32453251       2.05376953       5.79967539       23       0.25500114      -0.32841271       1.58048179       0.02846178      -0.05056525      -0.76310027
S        1.72283391       0.24694900       2.11057538       24      -0.36088584       0.34302889      -1.06532545       0.73469764       1.08152914      -0.47912195
S        4.40213166       7.66132152      10.75912708       25      -0.32470296      -1.39910369      -0.69005230       0.02301694       0.15219215       0.93752795
S        5.23296494       7.63919425       4.33739783       26       0.93730548      -0.45035243       0.58305772      -0.97798181      -0.49810955       1.30842459
S        1.45371240       0.20191324       8.60295908       27       0.22284690      -0.71173967       1.35636593      -0.01767740       0.77357018      -0.39094192
S        4.25446119       4.22648735      11.05878181       28       0.29180195       0.61728041       0.01803282      -0.76465130      -0.13734697       0.09223393
S        1.73554659       3.78894176       1.98233519       29      -1.23393130       0.03196644      -0.28204735      -0.25702789       0.37132531       0.45429641
S        1.26287492       3.64880846       8.61517331       30      -0.85746463       1.85032359      -0.45868096       0.02992075       0.31650597      -0.06185481
S        4.52970122       4.25343463       4.46044161       31      -0.80615788      -1.13203811       0.78309444       0.46536964       0.21659516       0.13301170
