32
Lattice="6.17176593 0.0 0.0 0.0 8.01859859 0.0 0.0 0.0 13.03281824" Properties=species:S:1:pos:R:3:spacegroup_kinds:I:1:momenta:R:3:forces:R:3 spacegroup="P 1" unit_cell=conventional occupancy="_JSON {\"0\": {\"Li\": 1}, \"1\": {\"Li\": 1}, \"2\": {\"Li\": 1}, \"3\": {\"Li\": 1}, \"4\": {\"Li\": 1}, \"5\": {\"Li\": 1}, \"6\": {\"Li\": 1}, \"7\": {\"Li\": 1}, \"8\": {\"Li\": 1}, \"9\": {\"Li\": 1}, \"10\": {\"Li\": 1}, \"11\": {\"Li\": 1}, \"12\": {\"P\": 1}, \"13\": {\"P\": 1}, \"14\": {\"P\": 1}, \"15\": {\"P\": 1}, \"16\": {\"S\": 1}, \"17\": {\"S\": 1}, \"18\": {\"S\": 1}, \"19\": {\"S\": 1}, \"20\": {\"S\": 1}, \"21\": {\"S\": 1}, \"22\": {\"S\": 1}, \"23\": {\"S\": 1}, \"24\": {\"S\": 1}, \"25\": {\"S\": 1}, \"26\": {\"S\": 1}, \"27\": {\"S\": 1}, \"28\": {\"S\": 1}, \"29\": {\"S\": 1}, \"30\": {\"S\": 1}, \"31\": {\"S\": 1}}" energy=-140.31869506835938 free_energy=-140.31869506835938 stress="-0.007170621771365404 -1.5255917640288885e-09 3.849585983317638e-09 -1.5255917640288885e-09 -0.008259407244622707 -1.0824378726681516e-08 3.849585983317638e-09 -1.0824378726681516e-08 -0.0052662999369204044" pbc="T T T"
Li       2.40329652       0.26860172       4.33400832        0       0.00000000       0.00000000       0.00000000      -0.02603540       0.00549128      -0.00432149
Li       3.76846941       7.74999687       8.69880992        1       0.00000000       0.00000000       0.00000000       0.02603635      -0.00549175       0.00432383
Li       5.48917948       7.74999687       2.18240080        2       0.00000000       0.00000000       0.00000000      -0.02603622      -0.00549072       0.00432380
Li       0.68258645       0.26860172      10.85041744        3       0.00000000       0.00000000       0.00000000       0.02603537       0.00549181      -0.00432003
Li       3.76846941       4.27790102       8.69880992        4       0.00000000       0.00000000       0.00000000       0.02603616       0.00549164       0.00432252
Li       2.40329652       3.74069757       4.33400832        5       0.00000000       0.00000000       0.00000000      -0.02603599      -0.00549171      -0.00432198
Li       0.68258645       3.74069757      10.85041744        6       0.00000000       0.00000000       0.00000000       0.02603645      -0.00549224      -0.00431990
Li       5.48917948       4.27790102       2.18240080        7       0.00000000       0.00000000       0.00000000      -0.02603611       0.00549098       0.00432310
Li       3.08588297       0.00000000       0.00000000        8       0.00000000       0.00000000       0.00000000       0.00000008      -0.00000107       0.00000012
Li       0.00000000       0.00000000       6.51640912        9       0.00000000       0.00000000       0.00000000       0.00000067      -0.00000269       0.00000104
Li       3.08588297       4.00929929       0.00000000       10       0.00000000       0.00000000       0.00000000      -0.00000010       0.00000135      -0.00000057
Li       0.00000000       4.00929929       6.51640912       11       0.00000000       0.00000000       0.00000000       0.00000019       0.00000009      -0.00000041
P        0.94051010       2.00464965       1.16601784       12       0.00000000       0.00000000       0.00000000      -0.02067193       0.00000126       0.02376137
P        5.23125583       6.01394894      11.86680040       13       0.00000000       0.00000000       0.00000000       0.02066581       0.00000148      -0.02375880
P        4.02639307       6.01394894       5.35039128       14       0.00000000       0.00000000       0.00000000      -0.02066787       0.00000034      -0.02375531
P        2.14537286       2.00464965       7.68242696       15       0.00000000       0.00000000       0.00000000       0.02066837      -0.00000046       0.02375766
S        5.08970823       2.00464965       1.30575389       16       0.00000000       0.00000000       0.00000000      -0.25450569      -0.00000052       0.01679053
S        1.08205770       6.01394894      11.72706435       17       0.00000000       0.00000000       0.00000000       0.25450724      -0.00000183      -0.01679170
S        2.00382526       6.01394894       5.21065523       18       0.00000000       0.00000000       0.00000000      -0.25450477       0.00000033      -0.01679235
S        4.16794067       2.00464965       7.82216301       19       0.00000000       0.00000000       0.00000000       0.25450018       0.00000108       0.01678964
S        1.68132889       2.00464965      12.25955363       20       0.00000000       0.00000000       0.00000000       0.10912296      -0.00000002      -0.16719678
S        4.49043704       6.01394894       0.77326461       21       0.00000000       0.00000000       0.00000000      -0.10912015      -0.00000005       0.16718048
S        4.76721186       6.01394894       7.28967373       22       0.00000000       0.00000000       0.00000000       0.10912098      -0.00000022       0.16717875
S        1.40455407       2.00464965       5.74314451       23       0.00000000       0.00000000       0.00000000      -0.10912001       0.00000007      -0.16718177
S        1.67233151       0.29287049       2.00524453       24       0.00000000       0.00000000       0.00000000       0.13957819      -0.21272650       0.08709970
S        4.49943442       7.72572810      11.02757371       25       0.00000000       0.00000000       0.00000000      -0.13957547       0.21272525      -0.08709359
S        4.75821447       7.72572810       4.51116459       26       0.00000000       0.00000000       0.00000000       0.13957514       0.21272556      -0.08709182
S        1.41355146       0.29287049       8.52165365       27       0.00000000       0.00000000       0.00000000      -0.13957591      -0.21272065       0.08709057
S        4.49943442       4.30216979      11.02757371       28       0.00000000       0.00000000       0.00000000      -0.13957787      -0.21272528      -0.08709337
S        1.67233151       3.71642880       2.00524453       29       0.00000000       0.00000000       0.00000000       0.13957873       0.21272662       0.08709911
S        1.41355146       3.71642880       8.52165365       30       0.00000000       0.00000000       0.00000000      -0.13957582       0.21272159       0.08709078
S        4.75821447       4.30216979       4.51116459       31       0.00000000       0.00000000       0.00000000       0.13957639      -0.21272504      -0.08709297
32
Lattice="6.17176593 0.0 0.0 0.0 8.01859859 0.0 0.0 0.0 13.03281824" Properties=species:S:1:pos:R:3:spacegroup_kinds:I:1:momenta:R:3:forces:R:3 spacegroup="P 1" unit_cell=conventional occupancy="_JSON {\"0\": {\"Li\": 1}, \"1\": {\"Li\": 1}, \"2\": {\"Li\": 1}, \"3\": {\"Li\": 1}, \"4\": {\"Li\": 1}, \"5\": {\"Li\": 1}, \"6\": {\"Li\": 1}, \"7\": {\"Li\": 1}, \"8\": {\"Li\": 1}, \"9\": {\"Li\": 1}, \"10\": {\"Li\": 1}, \"11\": {\"Li\": 1}, \"12\": {\"P\": 1}, \"13\": {\"P\": 1}, \"14\": {\"P\": 1}, \"15\": {\"P\": 1}, \"16\": {\"S\": 1}, \"17\": {\"S\": 1}, \"18\": {\"S\": 1}, \"19\": {\"S\": 1}, \"20\": {\"S\": 1}, \"21\": {\"S\": 1}, \"22\": {\"S\": 1}, \"23\": {\"S\": 1}, \"24\": {\"S\": 1}, \"25\": {\"S\": 1}, \"26\": {\"S\": 1}, \"27\": {\"S\": 1}, \"28\": {\"S\": 1}, \"29\": {\"S\": 1}, \"30\": {\"S\": 1}, \"31\": {\"S\": 1}}" energy=-140.29078674316406 free_energy=-140.29078674316406 stress="-0.0066602458246052265 -0.0001120916786021553 -3.6902656574966386e-05 -0.0001120916786021553 -0.006275244057178497 -0.000540080654900521 -3.6902656574966386e-05 -0.000540080654900521 -0.0036556890700012445" pbc="T T T"
Li       2.45524955       0.26032200       4.34246118        0       0.05005153      -0.19422844      -0.07732534      -0.12876892       0.04553313      -0.04036140
Li       3.80231704       7.71487691       8.73116158        1      -0.03054109      -0.19345816       0.31117098      -0.04929006       0.03981711      -0.09491239
Li       5.47117591       7.74218212       2.18358604        2      -0.24287757      -0.02502119       0.29931893       0.02527715       0.02581277       0.01168809
Li       0.70177087       0.28224878      10.83064675        3       0.13871997       0.26756236      -0.18307858      -0.01348360      -0.05792711       0.02343025
Li       3.77170961       4.23290118       8.64304520        4       0.06367919      -0.01711670      -0.43593763       0.03702940       0.15003572       0.11069817
Li       2.40142802       3.70277567       4.29158339        5      -0.10432337      -0.32770173      -0.31384998      -0.01994924       0.06272043       0.09165813
Li       0.71236259       3.72836819      10.86382208        6       0.13501395      -0.05152190      -0.02027489      -0.05095257       0.06862663      -0.00986594
Li       5.47323896       4.28902813       2.15224005        7      -0.13278969       0.18636020      -0.26383109       0.03122587       0.01556237       0.08405168
Li       3.12343557      -0.00319721       0.02597605        8       0.11639758       0.00334964       0.15666587      -0.06183717       0.02599549       0.00893188
Li      -0.00295027      -0.00880298       6.48790287        9       0.08968048       0.09716140      -0.45630277       0.06324584       0.01105754       0.06080494
Li       3.09314241       3.99042184       0.04127673       10      -0.06003087      -0.04124944       0.23835294       0.03491102       0.03800374      -0.06481188
Li       0.02338042       3.99338713       6.51264588       11       0.28718279      -0.20279386       0.05138380      -0.00307660       0.01983012      -0.02645782
P        0.93032229       2.00057576       1.15859195       12      -0.43551163      -0.60959883      -0.28981411       0.31304020      -0.01948383       0.18856597
P        5.21441495       6.01855506      11.84557906       13       0.07904073      -0.00727823      -0.56823276       0.29273635       0.02976361       0.23616314
P        4.02910829       6.01402917       5.34614620       14       0.27904991      -0.32828713      -0.36721620       0.04985759       0.11077269       0.05846664
P        2.14980752       2.00101664       7.69192496       15       0.33752016      -0.19679250       0.41317482      -0.34088153      -0.00277312      -0.17305014
S        5.09074122       2.02817942       1.31508415       16       0.06465604       1.18041919       0.49896566      -0.40755013      -0.10532859      -0.01608650
S        1.07787625       6.01305187      11.73781019       17      -0.19656212       0.03340693       0.38995129       0.04943303       0.05442947      -0.07901666
S        2.00733157       6.03218615       5.21201018       18      -0.08622062       0.36363403       0.53897521      -0.18547352      -0.08244950      -0.04155127
S        4.15931258       2.01722508       7.83738132       19       0.20904923       1.27824157       0.56612589       0.41834962      -0.16432787      -0.00732484
S        1.68545478       2.00741298      12.25643908       20       0.28129823      -0.07473298       0.28960377       0.10291876      -0.03547645      -0.10060868
S        4.49441162       6.02070289       0.77473680       21       0.52293403       0.33794840      -0.64749863      -0.13648465       0.01609531       0.04105163
S        4.78840727       5.99863874       7.29056531       22       0.80343089      -0.57831399       0.23146306       0.04872315       0.04330910       0.03310522
S        1.40459186       1.98436632       5.72379486       23      -0.16919592      -0.84919050      -0.58693705       0.00095521       0.08067072       0.17857717
S        1.66958553       0.27874881       2.00305474       24       0.30480375      -0.67473780       0.34086691       0.02151214      -0.00955949       0.01332416
S        4.47572100       7.73466120      11.02529387       25      -0.64867568       0.03689611      -0.34820726      -0.04061196       0.24117556      -0.05193854
S        4.77199070       7.75091684       4.51613903       26       0.65476305       1.17754110       0.09299966       0.08411936      -0.08510592      -0.02576817
S        1.41171244       0.27319055       8.50873891       27       0.16719168      -0.96483545      -0.62919936      -0.04467989      -0.07956488       0.05839400
S        4.48823074       4.31283878      11.02986059       28      -0.73479438       0.48118490       0.04561935      -0.18711230      -0.35725212      -0.21079974
S        1.67207614       3.71983577       2.01061403       29      -0.31737643      -0.30555384       0.10151652       0.03695974       0.06816185      -0.03480918
S        1.41049294       3.72457731       8.53612496       30      -0.70984172       0.41329619       0.42270909      -0.09524655      -0.00655412      -0.05407156
S        4.74894814       4.29184877       4.52007081       31      -0.71572206      -0.21458935       0.19884190       0.15510419      -0.14157031      -0.16747633
32
Lattice="6.17176593 0.0 0.0 0.0 8.01859859 0.0 0.0 0.0 13.03281824" Properties=species:S:1:pos:R:3:spacegroup_kinds:I:1:momenta:R:3:forces:R:3 spacegroup="P 1" unit_cell=conventional occupancy="_JSON {\"0\": {\"Li\": 1}, \"1\": {\"Li\": 1}, \"2\": {\"Li\": 1}, \"3\": {\"Li\": 1}, \"4\": {\"Li\": 1}, \"5\": {\"Li\": 1}, \"6\": {\"Li\": 1}, \"7\": {\"Li\": 1}, \"8\": {\"Li\": 1}, \"9\": {\"Li\": 1}, \"10\": {\"Li\": 1}, \"11\": {\"Li\": 1}, \"12\": {\"P\": 1}, \"13\": {\"P\": 1}, \"14\": {\"P\": 1}, \"15\": {\"P\": 1}, \"16\": {\"S\": 1}, \"17\": {\"S\": 1}, \"18\": {\"S\": 1}, \"19\": {\"S\": 1}, \"20\": {\"S\": 1}, \"21\": {\"S\": 1}, \"22\": {\"S\": 1}, \"23\": {\"S\": 1}, \"24\": {\"S\": 1}, \"25\": {\"S\": 1}, \"26\": {\"S\": 1}, \"27\": {\"S\": 1}, \"28\": {\"S\": 1}, \"29\": {\"S\": 1}, \"30\": {\"S\": 1}, \"31\": {\"S\": 1}}" energy=-140.15567016601562 free_energy=-140.15567016601562 stress="-0.003604118712246418 0.0006788921891711652 0.0005514660733751953 0.0006788921891711652 -0.003467242233455181 -0.0006720050005242229 0.0005514660733751953 -0.0006720050005242229 -0.0029853475280106068" pbc="T T T"
Li       2.43616099       0.21232911       4.35321653        0      -0.18177530      -0.11589117       0.06407906      -0.10220426       0.14316365      -0.05004935
Li       3.83691213       7.68592926       8.75524301        1       0.33195544      -0.20170050      -0.09142777      -0.06784187       0.10615465      -0.18990013
Li       5.42402603       7.70662271       2.22896574        2      -0.36817110      -0.40543474       0.32828907       0.13411647       0.12706718      -0.08106174
Li       0.73039961       0.29874333      10.82810846        3      -0.02569686      -0.07804316       0.11441000      -0.07665046      -0.11486357       0.00794747
Li       3.75373209       4.25488995       8.55959299        4      -0.40436538       0.28762494      -0.29032102       0.00644240       0.16889678       0.23902802
Li       2.38181181       3.67564151       4.21150922        5      -0.21206714      -0.10350691      -0.21297282      -0.00393182       0.08253858       0.28667408
Li       0.75958614       3.71019182      10.87464945        6       0.41850299      -0.02230560       0.34087005      -0.17709525       0.14273131      -0.06163251
Li       5.46121611       4.33881782       2.14473200        7       0.07712996       0.49360079       0.06768469       0.09573340      -0.06817409       0.11608917
Li       3.15711827       0.02397180       0.05825200        8       0.13780427       0.20365482       0.05271277      -0.02243720       0.02679461      -0.01540653
Li       0.02638807      -0.01531298       6.48366525        9       0.24045663      -0.16350137       0.21164613      -0.00044727      -0.02354344       0.01727196
Li       3.06329552       4.01005287       0.04899350       10      -0.09349636       0.19285018      -0.07289989       0.08721311       0.07766001      -0.09649295
Li       0.01663675       3.95118223       6.53539232       11      -0.04145639      -0.32218269       0.18733740      -0.06219483       0.03827241      -0.09378362
P        0.91707681       1.97023000       1.14687789       12      -0.19482217      -0.57531721       0.51287832       0.40585697       0.30907914       0.55576801
P        5.22672328       6.02308203      11.83695091       13       0.54136137       0.33283136       0.17409464      -0.14423122      -0.19976525       0.09619686
P        4.03243899       6.01021966       5.33095514       14      -0.13158073       0.24942154      -0.00236539       0.06209698       0.49259490       0.52701247
P        2.14814969       1.98789101       7.70091129       15       0.05559143      -0.00944569      -0.41506981       0.05014868       0.23290484      -0.25789434
S        5.08046964       2.05886792       1.35320935       16      -0.13792355       0.59444795       1.28017094      -0.28963238      -0.27957714      -0.08881100
S        1.07078768       6.01466787      11.74225685       17      -0.13339409      -0.33657407       0.16484734       0.30518740       0.05648620      -0.12012690
S        2.01192689       6.03948043       5.21835230       18       0.23424208       0.34348633      -0.56134773      -0.22634062      -0.15263683      -0.01383011
S        4.19823329       2.05862719       7.84943157       19       1.66335783       0.98057044       0.27763754      -0.30787140      -0.40845212      -0.01998864
S        1.69812370       1.99981936      12.25701697       20       0.54406567      -0.43355464      -0.28024213       0.06797604      -0.08997244      -0.06713440
S        4.50215963       6.03429110       0.76265579       21      -0.49358714      -0.12794134      -0.24801373      -0.20055060       0.02144287       0.10550934
S        4.82304479       5.98493633       7.29923976       22       1.05069227      -0.23164980       0.28778418      -0.06782528       0.17540443      -0.34981796
S        1.41110078       1.96906081       5.70875172       23       0.53503131      -0.34326752      -0.29893594       0.08464490       0.09741069       0.43107831
S        1.67578299       0.26299646       2.01705127       24       0.23951964      -0.18782439      -0.16177097      -0.14940271       0.10202080      -0.12302691
S        4.46752623       7.73927816      11.02497160       25      -0.28459754       0.49826143       0.00960713       0.06602452       0.25647089       0.01671174
S        4.77135171       7.76885334       4.50770803       26      -0.74642330       0.28842203      -0.35200079       0.02580566      -0.26384103       0.14921027
S        1.41046977       0.23862231       8.49803514       27       0.08231783      -1.10224431      -0.21971503       0.16298580       0.18106991       0.05510016
S        4.46635704       4.31353816      11.02234635       28      -0.63409839      -0.04943444       0.08083710      -0.00031408      -0.14576024      -0.13203467
S        1.66670435       3.72694894       2.00438211       29      -0.23040624       0.13251636      -0.62592562      -0.12485109      -0.22142585      -0.30791613
S        1.38774408       3.74282118       8.52919690       30      -0.44362609       0.09279544      -0.72276451       0.08572400      -0.42686528      -0.12846416
S        4.70965544       4.29246486       4.53421338       31      -1.39454093       0.11933596       0.40088680       0.38386598      -0.44328636      -0.40622580
32
Lattice="6.17176593 0.0 0.0 0.0 8.01859859 0.0 0.0 0.0 13.03281824" Properties=species:S:1:pos:R:3:spacegroup_kinds:I:1:momenta:R:3:forces:R:3 spacegroup="P 1" unit_cell=conventional occupancy="_JSON {\"0\": {\"Li\": 1}, \"1\": {\"Li\": 1}, \"2\": {\"Li\": 1}, \"3\": {\"Li\": 1}, \"4\": {\"Li\": 1}, \"5\": {\"Li\": 1}, \"6\": {\"Li\": 1}, \"7\": {\"Li\": 1}, \"8\": {\"Li\": 1}, \"9\": {\"Li\": 1}, \"10\": {\"Li\": 1}, \"11\": {\"Li\": 1}, \"12\": {\"P\": 1}, \"13\": {\"P\": 1}, \"14\": {\"P\": 1}, \"15\": {\"P\": 1}, \"16\": {\"S\": 1}, \"17\": {\"S\": 1}, \"18\": {\"S\": 1}, \"19\": {\"S\": 1}, \"20\": {\"S\": 1}, \"21\": {\"S\": 1}, \"22\": {\"S\": 1}, \"23\": {\"S\": 1}, \"24\": {\"S\": 1}, \"25\": {\"S\": 1}, \"26\": {\"S\": 1}, \"27\": {\"S\": 1}, \"28\": {\"S\": 1}, \"29\": {\"S\": 1}, \"30\": {\"S\": 1}, \"31\": {\"S\": 1}}" energy=-139.9796600341797 free_energy=-139.9796600341797 stress="-8.010373448996688e-07 0.0014993759104982018 0.0004968356806784868 0.0014993759104982018 -0.0015045285690575838 -0.00040356864337809384 0.0004968356806784868 -0.00040356864337809384 -0.005212382413446903" pbc="T T T"
Li       2.35232618       0.24910108       4.33626790        0      -0.67992661       0.19595449      -0.18182123       0.08081272      -0.01312314      -0.04799974
Li       3.90212422       7.70689497       8.70694052        1       0.32868935       0.14565439      -0.32308378      -0.11782292       0.16587485      -0.08217032
Li       5.35014613       7.67398329       2.27626466        2      -0.35421210      -0.11430857       0.19986886       0.24515232       0.22804858      -0.21375160
Li       0.69431930       0.25719004      10.86927572        3      -0.49009532      -0.35531075       0.26146981       0.00619530      -0.00337378      -0.09460562
Li       3.71260066       4.33531208       8.48990063        4       0.16367904       0.39238663      -0.29303830       0.00396031      -0.03150482       0.32145637
Li       2.32938442       3.67061832       4.16167472        5      -0.43819176      -0.07947145      -0.19643906       0.07104855       0.12270366       0.40768546
Li       0.81927038       3.68652693      10.90634720        6       0.25997628      -0.10290049       0.10669688      -0.28670052       0.18160744      -0.16551362
Li       5.53303353       4.42962883       2.18194468        7       0.23353505       0.30383481       0.42101447      -0.02873257      -0.19264954       0.07904220
Li       3.19021689       0.06873416       0.03021424        8       0.10829366       0.25547955      -0.32819500      -0.04907902       0.05540307       0.07701022
Li       0.08093838      -0.07709109       6.48219402        9       0.31979542      -0.47318943      -0.06157117      -0.02965103      -0.02222550      -0.07350364
Li       3.08069718       4.05680725       0.01125347       10       0.11941875       0.27962108      -0.45888451       0.03418872      -0.01573880      -0.02499344
Li       0.03243246       3.89374854       6.56149205       11       0.02029242      -0.25075430       0.36201191      -0.23056462       0.09339246      -0.20490098
P        0.91517478       1.95840100       1.16436969       12       0.07164380      -0.03011160       0.72138479       0.29465646       0.17858130       0.14756635
P        5.24995320       6.03556104      11.85096402       13       0.19303439       0.69012726       0.29347139      -0.71628892      -0.70729518      -0.28639290
P        4.03046004       6.00480728       5.34466875       14      -0.15409386      -0.22066965       0.40610848      -0.12036459       0.84292573       0.35172433
P        2.14748527       1.98964932       7.68094133       15      -0.26781350      -0.06404470      -0.95793906       0.49329093       0.19130127       0.35045671
S        5.07914134       2.05779367       1.39302964       16      -0.00886724      -0.27420757       1.01132549      -0.15981178      -0.21126685      -0.08185638
S        1.08188139       6.00885723      11.74447356       17       0.34664833      -0.13921822      -0.19710210       0.38195786       0.03135234      -0.10140863
S        2.00135765       6.04958692       5.21616059       18      -0.47848441       0.02535160       0.45552811      -0.15562715      -0.17805050       0.05859832
S        4.24449012       2.08895579       7.86742898       19       0.37001366       0.81520810       0.37429868      -0.97901750      -0.38873553      -0.06363194
S        1.71315210       1.96639280      12.25326793       20       0.65771854      -1.59471397       0.01887106      -0.05925295      -0.06035464       0.17346065
S        4.48777450       6.04390034       0.75255349       21      -0.07581806       0.98690979      -0.58131236      -0.15104890      -0.00318839       0.25860387
S        4.86765497       5.98894739       7.28000842       22       1.48299981       0.33787297      -1.10753788      -0.10447712       0.20059529      -0.22430274
S        1.41551572       1.96023574       5.72702633       23      -0.08330648      -0.13164485       0.99219894       0.00144060       0.16360399       0.05091885
S        1.68484172       0.25227119       2.00844762       24       0.45500400      -0.63869361       0.01554647      -0.18552653       0.05633532      -0.06363940
S        4.46216100       7.74810406      11.03988392       25       0.34319379       0.08481350       0.54938150       0.17739913       0.13684084      -0.11673428
S        4.74646883       7.77043554       4.50273992       26      -0.68137964      -0.25531715       0.00733945      -0.03196733      -0.26550418       0.33913115
S        1.40245677       0.21835597       8.48450874       27      -0.58467600      -0.09144623      -0.89527610       0.41746038       0.48042306       0.08553095
S        4.43728057       4.29727834      11.02131560       28      -0.37305085      -0.02200645       0.45452695       0.41631916       0.41850549       0.02786916
S        1.66340025       3.72459894       1.96969895       29       0.21491658       0.07160286      -1.03729369       0.01131229      -0.07165398      -0.26223904
S        1.36292767       3.75987993       8.50527003       30      -0.30733971       0.31419003      -0.31001074       0.28658870      -0.66870189      -0.05701018
S        4.67545434       4.29162370       4.55378074       31      -0.71159733      -0.06099805       0.27846182       0.48415011      -0.71412802      -0.56439990
32
Lattice="6.17176593 0.0 0.0 0.0 8.01859859 0.0 0.0 0.0 13.03281824" Properties=species:S:1:pos:R:3:spacegroup_kinds:I:1:momenta:R:3:forces:R:3 spacegroup="P 1" unit_cell=conventional occupancy="_JSON {\"0\": {\"Li\": 1}, \"1\": {\"Li\": 1}, \"2\": {\"Li\": 1}, \"3\": {\"Li\": 1}, \"4\": {\"Li\": 1}, \"5\": {\"Li\": 1}, \"6\": {\"Li\": 1}, \"7\": {\"Li\": 1}, \"8\": {\"Li\": 1}, \"9\": {\"Li\": 1}, \"10\": {\"Li\": 1}, \"11\": {\"Li\": 1}, \"12\": {\"P\": 1}, \"13\": {\"P\": 1}, \"14\": {\"P\": 1}, \"15\": {\"P\": 1}, \"16\": {\"S\": 1}, \"17\": {\"S\": 1}, \"18\": {\"S\": 1}, \"19\": {\"S\": 1}, \"20\": {\"S\": 1}, \"21\": {\"S\": 1}, \"22\": {\"S\": 1}, \"23\": {\"S\": 1}, \"24\": {\"S\": 1}, \"25\": {\"S\": 1}, \"26\": {\"S\": 1}, \"27\": {\"S\": 1}, \"28\": {\"S\": 1}, \"29\": {\"S\": 1}, \"30\": {\"S\": 1}, \"31\": {\"S\": 1}}" energy=-139.87911987304688 free_energy=-139.87911987304688 stress="0.0009884365135803819 -0.00029681067098863423 -8.623890607850626e-05 -0.00029681067098863423 -0.0014618724817410111 0.00018875648675020784 -8.623890607850626e-05 0.00018875648675020784 -0.008963895961642265" pbc="T T T"
Li       2.26177350       0.26737165       4.33278673        0      -0.50049205      -0.02362750      -0.11151555       0.20664731      -0.11693017      -0.07664554
Li       3.93883919       7.75744880       8.66532022        1       0.21255715       0.38773983      -0.16385974      -0.12734182       0.11807518       0.00514947
Li       5.32478979       7.70619976       2.28681129        2       0.12023645       0.31243243      -0.10049943       0.25631213       0.17207851      -0.26137263
Li       0.63425074       0.24407757      10.91585572        3      -0.10153551       0.22995963       0.18729151       0.19012597       0.00667180      -0.18629695
Li       3.72116546       4.37591275       8.48085238        4      -0.04095419       0.01602210       0.43101951      -0.05578747      -0.08448709       0.32996207
Li       2.23483367       3.68231653       4.22009717        5      -0.49254889       0.20206284       0.72408221       0.18816639       0.17210850       0.18034238
Li       0.84896325       3.68992808      10.90696892        6       0.02848398       0.40108400      -0.23322784      -0.24737798       0.12357554      -0.14820720
Li       5.56533293       4.43528282       2.26151731        7       0.11637308      -0.04842555       0.59828826      -0.17717125      -0.11288922      -0.04649384
Li       3.19631857       0.13340148       0.00504447        8       0.06703877       0.17800477      -0.07163945       0.03219702      -0.06632268       0.16354910
Li       0.15752947      -0.16534230       6.47061124        9       0.36725901      -0.49053042       0.04984807      -0.03490449      -0.01851364      -0.18875033
Li       3.12609089       4.09350835      -0.06053678       10       0.16342891       0.07075841      -0.14155639      -0.16390371      -0.07008125       0.28244871
Li       0.05661547       3.86024141       6.59767623       11       0.19858955       0.10195475       0.01285873      -0.42283195       0.12799062      -0.38886094
P        0.92884651       1.94934968       1.17878139       12       0.98663511       0.08937090       0.27501416      -0.00978987      -0.22662671       0.12777373
P        5.23940464       6.03871748      11.83939450       13      -0.49523674      -0.28316322      -0.76698882      -0.00588129      -0.48030835       0.00800327
P        4.01999857       6.03623984       5.38023773       14      -0.35699135       0.72428257       0.60439895       0.06094842      -0.09682029      -0.45728943
P        2.14880401       1.99479187       7.64769917       15       0.06066547       0.00269083      -0.61030982       0.44042000       0.26418155       0.99393594
S        5.06459157       2.02918395       1.41945199       16      -0.15418378      -0.68185548       0.55411274       0.28639483      -0.09801129      -0.13883603
S        1.09825518       6.00116718      11.72595897       17       0.53299476      -0.05740599      -0.59091846       0.01721360       0.00879946      -0.10249261
S        1.98893170       6.03929981       5.24513335       18      -0.65349272      -0.53216066       0.52126819      -0.21132913      -0.10160274       0.12907076