32
Lattice="6.17176593 0.0 0.0 0.0 8.01859859 0.0 0.0 0.0 13.03281824" Properties=species:S:1:pos:R:3:spacegroup_kinds:I:1:forces:R:3 spacegroup="P 1" unit_cell=conventional occupancy="_JSON {\"0\": {\"Li\": 1}, \"1\": {\"Li\": 1}, \"2\": {\"Li\": 1}, \"3\": {\"Li\": 1}, \"4\": {\"Li\": 1}, \"5\": {\"Li\": 1}, \"6\": {\"Li\": 1}, \"7\": {\"Li\": 1}, \"8\": {\"Li\": 1}, \"9\": {\"Li\": 1}, \"10\": {\"Li\": 1}, \"11\": {\"Li\": 1}, \"12\": {\"P\": 1}, \"13\": {\"P\": 1}, \"14\": {\"P\": 1}, \"15\": {\"P\": 1}, \"16\": {\"S\": 1}, \"17\": {\"S\": 1}, \"18\": {\"S\": 1}, \"19\": {\"S\": 1}, \"20\": {\"S\": 1}, \"21\": {\"S\": 1}, \"22\": {\"S\": 1}, \"23\": {\"S\": 1}, \"24\": {\"S\": 1}, \"25\": {\"S\": 1}, \"26\": {\"S\": 1}, \"27\": {\"S\": 1}, \"28\": {\"S\": 1}, \"29\": {\"S\": 1}, \"30\": {\"S\": 1}, \"31\": {\"S\": 1}}" energy=-140.31869506835938 free_energy=-140.31869506835938 stress="-0.007170621771365404 -1.5255917640288885e-09 3.849585983317638e-09 -1.5255917640288885e-09 -0.008259407244622707 -1.0824378726681516e-08 3.849585983317638e-09 -1.0824378726681516e-08 -0.0052662999369204044" pbc="T T T"
Li       2.40329652       0.26860172       4.33400832        0      -0.02603540       0.00549128      -0.00432149
Li       3.76846941       7.74999687       8.69880992        1       0.02603635      -0.00549175       0.00432383
Li       5.48917948       7.74999687       2.18240080        2      -0.02603622      -0.00549072       0.00432380
Li       0.68258645       0.26860172      10.85041744        3       0.02603537       0.00549181      -0.00432003
Li       3.76846941       4.27790102       8.69880992        4       0.02603616       0.00549164       0.00432252
Li       2.40329652       3.74069757       4.33400832        5      -0.02603599      -0.00549171      -0.00432198
Li       0.68258645       3.74069757      10.85041744        6       0.02603645      -0.00549224      -0.00431990
Li       5.48917948       4.27790102       2.18240080        7      -0.02603611       0.00549098       0.00432310
Li       3.08588297       0.00000000       0.00000000        8       0.00000008      -0.00000107       0.00000012
Li       0.00000000       0.00000000       6.51640912        9       0.00000067      -0.00000269       0.00000104
Li       3.08588297       4.00929929       0.00000000       10      -0.00000010       0.00000135      -0.00000057
Li       0.00000000       4.00929929       6.51640912       11       0.00000019       0.00000009      -0.00000041
P        0.94051010       2.00464965       1.16601784       12      -0.02067193       0.00000126       0.02376137
P        5.23125583       6.01394894      11.86680040       13       0.02066581       0.00000148      -0.02375880
P        4.02639307       6.01394894       5.35039128       14      -0.02066787       0.00000034      -0.02375531
P        2.14537286       2.00464965       7.68242696       15       0.02066837      -0.00000046       0.02375766
S        5.08970823       2.00464965       1.30575389       16      -0.25450569      -0.00000052       0.01679053
S        1.08205770       6.01394894      11.72706435       17       0.25450724      -0.00000183      -0.01679170
S        2.00382526       6.01394894       5.21065523       18      -0.25450477       0.00000033      -0.01679235
S        4.16794067       2.00464965       7.82216301       19       0.25450018       0.00000108       0.01678964
S        1.68132889       2.00464965      12.25955363       20       0.10912296      -0.00000002      -0.16719678
S        4.49043704       6.01394894       0.77326461       21      -0.10912015      -0.00000005       0.16718048
S        4.76721186       6.01394894       7.28967373       22       0.10912098      -0.00000022       0.16717875
S        1.40455407       2.00464965       5.74314451       23      -0.10912001       0.00000007      -0.16718177
S        1.67233151       0.29287049       2.00524453       24       0.13957819      -0.21272650       0.08709970
S        4.49943442       7.72572810      11.02757371       25      -0.13957547       0.21272525      -0.08709359
S        4.75821447       7.72572810       4.51116459       26       0.13957514       0.21272556      -0.08709182
S        1.41355146       0.29287049       8.52165365       27      -0.13957591      -0.21272065       0.08709057
S        4.49943442       4.30216979      11.02757371       28      -0.13957787      -0.21272528      -0.08709337
S        1.67233151       3.71642880       2.00524453       29       0.13957873       0.21272662       0.08709911
S        1.41355146       3.71642880       8.52165365       30      -0.13957582       0.21272159       0.08709078
S        4.75821447       4.30216979       4.51116459       31       0.13957639      -0.21272504      -0.08709297
