13
Lattice="7.26870274 0.0 0.0 3.634351370000001 6.294881225397555 0.0 3.634351370000001 2.0982937417991856 5.934870934989993" Properties=species:S:1:pos:R:3:spacegroup_kinds:I:1:momenta:R:3:forces:R:3 spacegroup="P 1" unit_cell=conventional occupancy="_JSON {\"0\": {\"Li\": 1}, \"1\": {\"Li\": 1}, \"2\": {\"Li\": 1}, \"3\": {\"Li\": 1}, \"4\": {\"Li\": 1}, \"5\": {\"Li\": 1}, \"6\": {\"P\": 1}, \"7\": {\"S\": 1}, \"8\": {\"S\": 1}, \"9\": {\"S\": 1}, \"10\": {\"S\": 1}, \"11\": {\"S\": 1}, \"12\": {\"Cl\": 1}}" energy=-53.32576370239258 free_energy=-53.32576370239258 stress="-0.003912351559847593 -0.0011594004463404417 -0.002166016725823283 -0.0011594004463404417 -0.001225995714776218 -0.0014747071545571089 -0.002166016725823283 -0.0014747071545571089 0.00015476590488106012" pbc="T T T"
Li       9.31394633       7.19099607       3.07546170        0       0.33401134      -0.25423395      -0.12006181      -0.12393691       0.19406304      -0.22610408
Li      12.52824233       5.28583223       5.79916970        1      -0.26861297      -0.11896014      -0.04062539      -0.09631225       0.06279472       0.03823340
Li       9.28924529       5.18041038       5.74695942        2      -0.10787283      -0.48781135       0.02116892       0.20078970       0.00279749       0.15681387
Li      12.50404438       7.20973422       3.03650069        3      -0.41951469       0.00009539      -0.14756015       0.07600713       0.04636709      -0.09571019
Li      10.86772759       4.34741567       3.19894467        4      -0.10077738      -0.11039878       0.29906626       0.14140566      -0.20628880      -0.10734855
Li      10.87159641       8.17207892       5.79230426        5      -0.13744031      -0.12682884       0.18885652       0.01567598       0.01233233      -0.03051431
P        7.26419001       4.22151594       2.98651859        6       0.04918419       0.53098550       0.10834491       0.38044745      -0.27554721      -0.19267297
S        7.32199865       6.13091168       2.25593698        7       0.56212697      -0.86067016      -1.01799325      -0.22078307       0.27226815       0.17004462
S        8.95796296       3.25677472       2.28356167        8       0.26850189       0.13682208       0.30516000      -0.12154949      -0.11781292       0.16071826
S        5.62695527       3.24649037       2.26013989        9       0.55760376       0.88495948      -0.05030008      -0.31524059      -0.10937066       0.10904556
S        7.26733813       4.20725430       5.05004192       10      -0.06339844      -0.21078106       0.43546561      -0.13280538      -0.08111279      -0.18351154
S       10.88038850       6.27274559       4.44021686       11       0.14161610      -0.10935163      -0.47815242       0.19723058      -0.02499880       0.17181838
Cl      -0.05720574       0.02331963       0.02268055       12      -0.81542763       0.72617349       0.49663087      -0.00092879       0.22450845       0.02918751
