13
Lattice="7.26870274 0.0 0.0 3.634351370000001 6.294881225397555 0.0 3.634351370000001 2.0982937417991856 5.934870934989993" Properties=species:S:1:pos:R:3:spacegroup_kinds:I:1:momenta:R:3:forces:R:3 spacegroup="P 1" unit_cell=conventional occupancy="_JSON {\"0\": {\"Li\": 1}, \"1\": {\"Li\": 1}, \"2\": {\"Li\": 1}, \"3\": {\"Li\": 1}, \"4\": {\"Li\": 1}, \"5\": {\"Li\": 1}, \"6\": {\"P\": 1}, \"7\": {\"S\": 1}, \"8\": {\"S\": 1}, \"9\": {\"S\": 1}, \"10\": {\"S\": 1}, \"11\": {\"S\": 1}, \"12\": {\"Cl\": 1}}" energy=-53.3634147644043 free_energy=-53.3634147644043 stress="-0.000794188235886395 -2.3536277637958847e-07 -1.6778179201537569e-07 -2.3536277637958847e-07 -0.0007939371280372143 -1.1874620042817696e-07 -1.6778179201537569e-07 -1.1874620042817696e-07 -0.0007939051138237119" pbc="T T T"
Li       9.25387995       7.24703237       3.10460814        0       0.00000000       0.00000000       0.00000000       0.00422493      -0.00243410       0.00344735
Li      12.55222827       5.34273008       5.79769826        1       0.00000000       0.00000000       0.00000000      -0.00421075       0.00243296      -0.00344113
Li       9.25387995       5.34273008       5.79769826        2       0.00000000       0.00000000       0.00000000       0.00422423       0.00243874      -0.00344659
Li      12.55222827       7.24703237       3.10460814        3       0.00000000       0.00000000       0.00000000      -0.00421163      -0.00243076       0.00344052
Li      10.90305411       4.39057894       3.10460814        4       0.00000000       0.00000000       0.00000000       0.00000246       0.00487612       0.00344834
Li      10.90305411       8.19918351       5.79769826        5       0.00000000       0.00000000       0.00000000       0.00000198      -0.00486354      -0.00344126
P        7.26870274       4.19658748       2.96743547        6       0.00000000       0.00000000       0.00000000       0.00008576       0.00004651       0.00003598
S        7.26870637       6.13578650       2.28182731        7       0.00000000       0.00000000       0.00000000      -0.00001791      -0.01090917       0.00384724
S        8.94810016       3.22699113       2.28182731        8       0.00000000       0.00000000       0.00000000      -0.00945765       0.00544003       0.00384709
S        5.58931258       3.22699113       2.28182731        9       0.00000000       0.00000000       0.00000000       0.00937778       0.00541280       0.00383063
S        7.26870637       4.19658958       5.02426588       10       0.00000000       0.00000000       0.00000000      -0.00001871      -0.00000976      -0.01156864
S       10.90305411       6.29488123       4.45115320       11       0.00000000       0.00000000       0.00000000      -0.00000137      -0.00000098      -0.00000084
Cl       0.00000000       0.00000000       0.00000000       12       0.00000000       0.00000000       0.00000000       0.00000086       0.00000118       0.00000126
13
Lattice="7.26870274 0.0 0.0 3.634351370000001 6.294881225397555 0.0 3.634351370000001 2.0982937417991856 5.934870934989993" Properties=species:S:1:pos:R:3:spacegroup_kinds:I:1:momenta:R:3:forces:R:3 spacegroup="P 1" unit_cell=conventional occupancy="_JSON {\"0\": {\"Li\": 1}, \"1\": {\"Li\": 1}, \"2\": {\"Li\": 1}, \"3\": {\"Li\": 1}, \"4\": {\"Li\": 1}, \"5\": {\"Li\": 1}, \"6\": {\"P\": 1}, \"7\": {\"S\": 1}, \"8\": {\"S\": 1}, \"9\": {\"S\": 1}, \"10\": {\"S\": 1}, \"11\": {\"S\": 1}, \"12\": {\"Cl\": 1}}" energy=-53.36324691772461 free_energy=-53.36324691772461 stress="-0.0009622126817703247 3.173780351062305e-05 7.793101394781843e-05 3.173780351062305e-05 -0.0007627869490534067 -9.955120913218707e-05 7.793101394781843e-05 -9.955120913218707e-05 -0.000887939939275384" pbc="T T T"
Li       9.25202677       7.24588705       3.10178262        0      -0.03087050      -0.02091453      -0.11212860       0.01614979      -0.00469232       0.00982323
Li      12.55337736       5.34020562       5.79912890        1       0.03821070      -0.10701922       0.11456156      -0.01511092       0.00670847      -0.01268838
Li       9.25094652       5.34370749       5.79847269        2      -0.06440323       0.08700901       0.01301936       0.01419243       0.00901517      -0.00713269
Li      12.55152553       7.24410664       3.10483078        3      -0.06340772      -0.10585818      -0.03679499      -0.00249981       0.00564162      -0.00127351
Li      10.90460713       4.38854370       3.10492589        4       0.08344170      -0.12582628      -0.01017421      -0.00586960       0.01226425       0.01099756
Li      10.90001899       8.19930722       5.79562095        5      -0.09852831       0.00573402      -0.09209363      -0.00197826      -0.00450874       0.00605430
P        7.26953340       4.19538937       2.96790415        6       0.17017070      -0.21790274       0.06129455      -0.02257042       0.03396503      -0.01861986
S        7.26856897       6.13552080       2.28211464        7      -0.02680247      -0.01528989       0.10075550      -0.00431781      -0.01938911      -0.00009678
S        8.94718407       3.22831174       2.28070271        8      -0.16172252       0.39511848      -0.12020362       0.01451740      -0.02000690       0.00855631
S        5.58908608       3.22777769       2.28181266        9       0.00591860       0.01334417       0.02260942       0.01264551      -0.00330712       0.00710842
S        7.26947121       4.19721575       5.02364996       10       0.05815799       0.09393333      -0.05314568      -0.00190445      -0.00898255       0.00319286
S       10.90299083       6.29439341       4.45237137       11      -0.05828443      -0.11601913       0.13807170      -0.00672461      -0.00691837      -0.00672858
Cl       0.00092550       0.00066815       0.00018926       12       0.14811950       0.11369097      -0.02577136       0.00347083       0.00021058       0.00080727
13
Lattice="7.26870274 0.0 0.0 3.634351370000001 6.294881225397555 0.0 3.634351370000001 2.0982937417991856 5.934870934989993" Properties=species:S:1:pos:R:3:spacegroup_kinds:I:1:momenta:R:3:forces:R:3 spacegroup="P 1" unit_cell=conventional occupancy="_JSON {\"0\": {\"Li\": 1}, \"1\": {\"Li\": 1}, \"2\": {\"Li\": 1}, \"3\": {\"Li\": 1}, \"4\": {\"Li\": 1}, \"5\": {\"Li\": 1}, \"6\": {\"P\": 1}, \"7\": {\"S\": 1}, \"8\": {\"S\": 1}, \"9\": {\"S\": 1}, \"10\": {\"S\": 1}, \"11\": {\"S\": 1}, \"12\": {\"Cl\": 1}}" energy=-53.362464904785156 free_energy=-53.362464904785156 stress="-0.001387057127431035 0.00015999357856344432 0.0002476398949511349 0.00015999357856344432 -0.0007303762249648571 -0.0002859988890122622 0.0002476398949511349 -0.0002859988890122622 -0.0009848640765994787" pbc="T T T"
Li       9.25162354       7.24411030       3.09695523        0      -0.00075507      -0.06164444      -0.10340670       0.03024852      -0.01126875       0.01761406
Li      12.55521368       5.33556140       5.80547825        1       0.15858298      -0.10648777       0.26340088      -0.03491463       0.01534235      -0.04350493
Li       9.25149317       5.34543578       5.79922528        2       0.07335378       0.01541267      -0.04030239       0.00713906       0.00513183      -0.00815209
Li      12.55016789       7.24044812       3.10190476        3       0.00391214      -0.14467616      -0.09702199      -0.00763106       0.01188961      -0.00256833
Li      10.90680459       4.38426286       3.10550513        4       0.07261591      -0.10010142       0.00358169      -0.00944629       0.02367292       0.02314017
Li      10.89726534       8.19738809       5.79485341        5      -0.07458992      -0.08039508      -0.01017793      -0.00342847       0.00308267       0.00843923
P        7.27025245       4.19451349       2.96724720        6       0.10038019      -0.03587558      -0.17480856      -0.06621239       0.09104577       0.00691480
S        7.26867401       6.13615086       2.28225070        7      -0.04219989       0.14943527       0.01697016      -0.01151374      -0.03085386      -0.00601882
S        8.94492492       3.23215824       2.28001683        8      -0.28046975       0.55239350      -0.12453887       0.07074838      -0.06977396       0.00788572
S        5.59003375       3.22726131       2.28240291        9       0.08685743      -0.16898782       0.20652469       0.00456193      -0.01084099      -0.00337122
S        7.26911794       4.19815973       5.02295724       10      -0.05955516       0.19614846      -0.10630676       0.00782850      -0.01951843       0.00852621
S       10.90257148       6.29244446       4.45328361       11      -0.10747957      -0.26046235       0.11601068       0.00459611      -0.01152899      -0.01389289
Cl       0.00198537       0.00162911       0.00064623       12       0.06934694       0.04524071       0.05007510       0.00802409       0.00361979       0.00498810
13
Lattice="7.26870274 0.0 0.0 3.634351370000001 6.294881225397555 0.0 3.634351370000001 2.0982937417991856 5.934870934989993" Properties=species:S:1:pos:R:3:spacegroup_kinds:I:1:momenta:R:3:forces:R:3 spacegroup="P 1" unit_cell=conventional occupancy="_JSON {\"0\": {\"Li\": 1}, \"1\": {\"Li\": 1}, \"2\": {\"Li\": 1}, \"3\": {\"Li\": 1}, \"4\": {\"Li\": 1}, \"5\": {\"Li\": 1}, \"6\": {\"P\": 1}, \"7\": {\"S\": 1}, \"8\": {\"S\": 1}, \"9\": {\"S\": 1}, \"10\": {\"S\": 1}, \"11\": {\"S\": 1}, \"12\": {\"Cl\": 1}}" energy=-53.36001205444336 free_energy=-53.36001205444336 stress="-0.0019984939135611057 0.0002783319796435535 0.00048348912969231606 0.0002783319796435535 -0.0004973532049916685 -0.0005944654694758356 0.00048348912969231606 -0.0005944654694758356 -0.0010948863346129656" pbc="T T T"
Li       9.25076860       7.24286852       3.09219028        0      -0.02291588      -0.04909303      -0.15205378       0.04603713      -0.01682724       0.02540422
Li      12.55990208       5.33001708       5.81311747        1       0.08813543      -0.10718999       0.20993160      -0.06646459       0.03100709      -0.08466471
Li       9.25595596       5.34428034       5.79427365        2       0.14251524      -0.02105034      -0.24081136      -0.01374812      -0.00946668       0.01712131
Li      12.55042731       7.23657290       3.10200640        3       0.00200820      -0.05596260       0.06285002      -0.01157109       0.02042304      -0.00418305
Li      10.90698178       4.38080426       3.10579993        4      -0.06747099      -0.13119145       0.01280308      -0.00492820       0.03178556       0.03041762
Li      10.89512985       8.19317063       5.79603953        5      -0.04551908      -0.12511824       0.05254084      -0.00485471       0.01887891       0.00602371
P        7.27141551       4.19311302       2.96616672        6       0.21496889      -0.35687509      -0.07088930      -0.12712720       0.18393195       0.03679733
S        7.26932728       6.13882448       2.28208425        7       0.21352934       0.40770311      -0.08914720      -0.01905284      -0.07519522      -0.00075578
S        8.94200969       3.23592357       2.27882760        8      -0.32703595       0.52655108      -0.37361109       0.14159288      -0.12616019       0.00875518
S        5.59154847       3.22654468       2.28436138        9       0.15438001      -0.05025307       0.25609843      -0.01325169      -0.01470968      -0.03640081
S        7.26768055       4.19928151       5.02192328       10      -0.17089206       0.12217784      -0.04537227       0.03280419      -0.03555273       0.01405056
S       10.90157403       6.29048687       4.45352699       11      -0.11724189      -0.22941939       0.06946216       0.03161985      -0.01631602      -0.01947164
Cl       0.00250958       0.00231987       0.00188253       12      -0.06446126       0.06972117       0.30819888       0.00894445       0.00820125       0.00690612
13
Lattice="7.26870274 0.0 0.0 3.634351370000001 6.294881225397555 0.0 3.634351370000001 2.0982937417991856 5.934870934989993" Properties=species:S:1:pos:R:3:spacegroup_kinds:I:1:momenta:R:3:forces:R:3 spacegroup="P 1" unit_cell=conventional occupancy="_JSON {\"0\": {\"Li\": 1}, \"1\": {\"Li\": 1}, \"2\": {\"Li\": 1}, \"3\": {\"Li\": 1}, \"4\": {\"Li\": 1}, \"5\": {\"Li\": 1}, \"6\": {\"P\": 1}, \"7\": {\"S\": 1}, \"8\": {\"S\": 1}, \"9\": {\"S\": 1}, \"10\": {\"S\": 1}, \"11\": {\"S\": 1}, \"12\": {\"Cl\": 1}}" energy=-53.35535430908203 free_energy=-53.35535430908203 stress="-0.002778055379167199 0.000280302221653983 0.0006342505221255124 0.000280302221653983 -0.00014140679559204727 -0.0008955887169577181 0.0006342505221255124 -0.0008955887169577181 -0.0010281391441822052" pbc="T T T"
Li       9.25150649       7.24145077       3.08597089        0       0.09977911      -0.06898357      -0.13261509       0.06113061      -0.02336912       0.02964167
Li      12.56402427       5.32416310       5.81784203        1       0.11986896      -0.16000649       0.11668485      -0.09555846       0.04524089      -0.11710830
Li       9.26291503       5.34111940       5.78445647        2       0.17775159      -0.10087995      -0.29904042      -0.04138255      -0.02988961       0.05824205
Li      12.55271383       7.23511460       3.10324415        3       0.13415930      -0.00677470      -0.03297029      -0.01610763       0.02079707      -0.00200276
Li      10.90421253       4.37426765       3.10442259        4      -0.13490575      -0.17162889      -0.00787653       0.00687877       0.05538977       0.04667892
Li      10.89325172       8.18874991       5.79612180        5      -0.03174457      -0.04796378      -0.03801704      -0.00573347       0.03975239       0.01429942
P        7.27121642       4.18979070       2.96533991        6      -0.16275015      -0.46399856      -0.12713825      -0.15037785       0.32060102       0.07040699
S        7.27149906       6.14192048       2.28306018        7       0.34462516       0.46750283       0.21337368      -0.03304507      -0.14311245       0.00457073
S        8.93955566       3.23926942       2.27681826        8      -0.30890584       0.38698840      -0.22650528       0.19191587      -0.18070801       0.00877375
S        5.59319270       3.22644926       2.28574261        9       0.09880248      -0.10247382       0.02129543      -0.04830394      -0.03270700      -0.07988121
S        7.26680111       4.20146143       5.02190513       10      -0.00741856       0.31835998       0.02859405       0.05498481      -0.06271210       0.00526613
S       10.90025153       6.28914277       4.45388797       11      -0.11667188      -0.06476587       0.12590200       0.06849885      -0.02521220      -0.04538257
Cl       0.00153342       0.00320323       0.00427913       12      -0.21258984       0.01462442       0.35831289       0.00710010       0.01592936       0.00649514
13
Lattice="7.26870274 0.0 0.0 3.634351370000001 6.294881225397555 0.0 3.634351370000001 2.0982937417991856 5.934870934989993" Properties=species:S:1:pos:R:3:spacegroup_kinds:I:1:momenta:R:3:forces:R:3 spacegroup="P 1" unit_cell=conventional occupancy="_JSON {\"0\": {\"Li\": 1}, \"1\": {\"Li\": 1}, \"2\": {\"Li\": 1}, \"3\": {\"Li\": 1}, \"4\": {\"Li\": 1}, \"5\": {\"Li\": 1}, \"6\": {\"P\": 1}, \"7\": {\"S\": 1}, \"8\": {\"S\": 1}, \"9\": {\"S\": 1}, \"10\": {\"S\": 1}, \"11\": {\"S\": 1}, \"12\": {\"Cl\": 1}}" energy=-53.35014724731445 free_energy=-53.35014724731445 stress="-0.0034184271935373545 0.000299960607662797 0.0007141532842069864 0.000299960607662797 0.00012424161832313985 -0.0011133340885862708 0.0007141532842069864 -0.0011133340885862708 -0.0008900840184651315" pbc="T T T"
Li       9.25470849       7.23969115       3.08170381        0       0.08643012      -0.09272051      -0.15678212       0.06629007      -0.02245203       0.02525299
Li      12.56877072       5.31845397       5.82086833        1       0.10417391      -0.17472688       0.03128831      -0.12638317       0.06351665      -0.14097409
Li       9.26854267       5.33575756       5.77370987        2       0.11309490      -0.21597684      -0.32731675      -0.05904894      -0.04456750       0.10107962
Li      12.55707663       7.23447915       3.09960311        3       0.08598173      -0.03236213      -0.20985359      -0.03755293       0.01185342       0.01352153
Li      10.90036846       4.36971264       3.10633441        4      -0.09800373      -0.14422568       0.06999376       0.02113253       0.06427197       0.05297753
Li      10.89280386       8.18976519       5.79371749        5      -0.02555371       0.10491471      -0.12878252      -0.00401610       0.03877500       0.02759335
P        7.27081879       4.18731140       2.96484524        6       0.15069196      -0.12598371      -0.08421695      -0.16334856       0.42323181       0.08544399
S        7.27458650       6.14505514       2.28495760        7       0.42057170       0.29811064       0.18384719      -0.03915768      -0.20342901       0.00122563
S        8.93738288       3.24069050       2.27563230        8      -0.29519057       0.13209960      -0.12178522       0.23002620      -0.21079722       0.00805775
S        5.59472412       3.22637842       2.28652225        9       0.27139453       0.17215077       0.20858528      -0.08107694      -0.04266304      -0.11073306
S        7.26684487       4.20338371       5.02213484       10      -0.00239074       0.20107356       0.21903939       0.06887347      -0.07992043      -0.00500447
S       10.89834594       6.28873516       4.45412200       11      -0.20801938      -0.14920545       0.00722674       0.11897548      -0.02457628      -0.06500196
Cl      -0.00139498       0.00347048       0.00611699       12      -0.60318072       0.02685193       0.30875649       0.00528654       0.02675665       0.00656113
13
Lattice="7.26870274 0.0 0.0 3.634351370000001 6.294881225397555 0.0 3.634351370000001 2.0982937417991856 5.934870934989993" Properties=species:S:1:pos:R:3:spacegroup_kinds:I:1:momenta:R:3:forces:R:3 spacegroup="P 1" unit_cell=conventional occupancy="_JSON {\"0\": {\"Li\": 1}, \"1\": {\"Li\": 1}, \"2\": {\"Li\": 1}, \"3\": {\"Li\": 1}, \"4\": {\"Li\": 1}, \"5\": {\"Li\": 1}, \"6\": {\"P\": 1}, \"7\": {\"S\": 1}, \"8\": {\"S\": 1}, \"9\": {\"S\": 1}, \"10\": {\"S\": 1}, \"11\": {\"S\": 1}, \"12\": {\"Cl\": 1}}" energy=-53.345115661621094 free_energy=-53.345115661621094 stress="-0.004076486453413963 0.0003266215499024838 0.0007301021250896156 0.0003266215499024838 0.00012888108904007822 -0.0012676884653046727 0.0007301021250896156 -0.0012676884653046727 -0.0005833198083564639" pbc="T T T"
Li       9.25558660       7.23416709       3.07765660        0      -0.00063446      -0.19198174      -0.12797448       0.08011790      -0.00555800       0.02065060
Li      12.57163944       5.31334013       5.82053016        1       0.00885833      -0.09671076      -0.04789996      -0.14956957       0.07863857      -0.14731136
Li       9.27308187       5.32785881       5.76284705        2       0.13484527      -0.21776440      -0.34915332      -0.06839526      -0.05539753       0.14249408
Li      12.56047316       7.23602014       3.09164255        3       0.12375714       0.04217516      -0.20574268      -0.06618582      -0.00718771       0.03474572
Li      10.89655380       4.36357630       3.10938714        4      -0.13954845      -0.17920437       0.08492434       0.03920206       0.07258806       0.05974258
Li      10.89378182       8.19237409       5.78891505        5       0.03581888       0.05357416      -0.18606645      -0.00081369       0.02795359       0.04267187
P        7.27147333       4.18675927       2.96481665        6       0.07531996       0.02004364       0.05112014      -0.19418043       0.47356188       0.11152259
S        7.27767122       6.14674935       2.28693940        7       0.34701836       0.13536589       0.29608605      -0.04721877      -0.22580776      -0.01557253
S        8.93597206       3.24265159       2.27567414        8      -0.12141441       0.31033959       0.13622833       0.26623589      -0.23453955      -0.00573274
S        5.59685116       3.22781650       2.28666899        9       0.44032884       0.22783403      -0.11752434      -0.10364066      -0.06048904      -0.12931232
S        7.26653147       4.20513828       5.02376624       10       0.03159726       0.29040904       0.28267560       0.08062315      -0.09037863      -0.02929090
S       10.89680286       6.28705587       4.45402782       11      -0.23116133      -0.31684296       0.05486033       0.16117731      -0.01389948      -0.09101705
Cl      -0.00552132       0.00333348       0.00762144       12      -0.70478539      -0.07723728       0.12846647       0.00264785       0.04051554       0.00640957
13
Lattice="7.26870274 0.0 0.0 3.634351370000001 6.294881225397555 0.0 3.634351370000001 2.0982937417991856 5.934870934989993" Properties=species:S:1:pos:R:3:spacegroup_kinds:I:1:momenta:R:3:forces:R:3 spacegroup="P 1" unit_cell=conventional occupancy="_JSON {\"0\": {\"Li\": 1}, \"1\": {\"Li\": 1}, \"2\": {\"Li\": 1}, \"3\": {\"Li\": 1}, \"4\": {\"Li\": 1}, \"5\": {\"Li\": 1}, \"6\": {\"P\": 1}, \"7\": {\"S\": 1}, \"8\": {\"S\": 1}, \"9\": {\"S\": 1}, \"10\": {\"S\": 1}, \"11\": {\"S\": 1}, \"12\": {\"Cl\": 1}}" energy=-53.34001159667969 free_energy=-53.34001159667969 stress="-0.004807116463780403 0.0003273339243605733 0.0006856092950329185 0.0003273339243605733 0.00010140378435608 -0.0013620371464639902 0.0006856092950329185 -0.0013620371464639902 -0.00020634365500882268" pbc="T T T"
Li       9.25573720       7.22844851       3.07491863        0       0.03445229      -0.11304224      -0.07240403       0.09395159       0.01621396       0.01537802
Li      12.57048147       5.31119090       5.81631972        1      -0.06513264      -0.03374773      -0.14280304      -0.15319720       0.08389780      -0.13319828
Li       9.27749447       5.31642551       5.75017609        2       0.11365976      -0.39423112      -0.37044118      -0.07097621      -0.06421506       0.18613139
Li      12.56405971       7.23726750       3.08211679        3       0.10908902       0.02044909      -0.32219875      -0.09905473      -0.02475606       0.05728095
Li      10.89168466       4.35647839       3.11043346        4      -0.14768845      -0.17100651      -0.04317488       0.06428481       0.08496314       0.06758419
Li      10.89629813       8.19454729       5.78444737        5       0.07049476       0.04173585      -0.11124975       0.00368662       0.01692402       0.05622260
P        7.27253722       4.18718966       2.96617154        6       0.21798831       0.11623988       0.24830378      -0.22481707       0.50320971       0.12393341
S        7.28067627       6.14825033       2.28893908        7       0.52282634       0.20565215       0.24222250      -0.05283884      -0.23832843      -0.03021304
S        8.93486365       3.24505765       2.27658237        8      -0.24916409       0.32478326       0.12927825       0.29733709      -0.25805426      -0.03109219
S        5.60055429       3.22968152       2.28477352        9       0.49576418       0.30526005      -0.26583256      -0.12695275      -0.07704908      -0.13405532
S        7.26703849       4.20706275       5.02656469       10       0.08168808       0.22960971       0.38802296       0.07460850      -0.09862234      -0.05347682
S       10.89492776       6.28487494       4.45417433       11      -0.19599256      -0.31849500       0.08080118       0.19630186       0.00041886      -0.13021278
Cl      -0.01114052       0.00242020       0.00908939       12      -0.98798501      -0.21320738       0.23947555      -0.00233366       0.05539765       0.00571781
13
Lattice="7.26870274 0.0 0.0 3.634351370000001 6.294881225397555 0.0 3.634351370000001 2.0982937417991856 5.934870934989993" Properties=species:S:1:pos:R:3:spacegroup_kinds:I:1:momenta:R:3:forces:R:3 spacegroup="P 1" unit_cell=conventional occupancy="_JSON {\"0\": {\"Li\": 1}, \"1\": {\"Li\": 1}, \"2\": {\"Li\": 1}, \"3\": {\"Li\": 1}, \"4\": {\"Li\": 1}, \"5\": {\"Li\": 1}, \"6\": {\"P\": 1}, \"7\": {\"S\": 1}, \"8\": {\"S\": 1}, \"9\": {\"S\": 1}, \"10\": {\"S\": 1}, \"11\": {\"S\": 1}, \"12\": {\"Cl\": 1}}" energy=-53.33684539794922 free_energy=-53.33684539794922 stress="-0.005199394188821316 0.00031742980354465544 0.0005941771087236702 0.00031742980354465544 7.29297025827691e-05 -0.0014420781517401338 0.0005941771087236702 -0.0014420781517401338 7.706174801569432e-05" pbc="T T T"
Li       9.25953310       7.22662205       3.07427155        0       0.12115575      -0.07633822      -0.02754447       0.09118074       0.02924132       0.00493752
Li      12.56828282       5.31106111       5.81363298        1      -0.11011045      -0.01600280      -0.02259833      -0.14594282       0.08464409      -0.11876903
Li       9.28419485       5.30201670       5.74140453        2       0.20605961      -0.45360005      -0.16608020      -0.07190815      -0.07632171       0.21654797
Li      12.56696276       7.23654697       3.07262945        3       0.01313726      -0.06328050      -0.23215717      -0.12265277      -0.03439151       0.07407431
Li      10.88636628       4.35298122       3.11161944        4      -0.16193826      -0.07054532       0.13153061       0.08751331       0.08533023       0.06718927
Li      10.89733336       8.19357323       5.78082091        5      -0.06389680      -0.00713772      -0.14147814       0.00928808       0.01625796       0.06853483
P        7.27272155       4.18871872       2.96880485        6      -0.08292048       0.18606631       0.37937845      -0.22336996       0.50394893       0.10833542
S        7.28535754       6.14920079       2.28915483        7       0.77729438      -0.01361455      -0.23400629      -0.05975090      -0.23957106      -0.02952416
S        8.93453401       3.24735924       2.27775327        8       0.08187980       0.25943231       0.20250773       0.30096227      -0.27263600      -0.04203113
S        5.60360323       3.23184400       2.28174709        9       0.30354479       0.31667816      -0.56072999      -0.14358428      -0.08048782      -0.12178746
S        7.26821861       4.20780129       5.02983347       10       0.22703310       0.08425094       0.36208223       0.05725936      -0.10156164      -0.07072894
S       10.89317311       6.28219829       4.45496300       11      -0.23845264      -0.23391000       0.28412975       0.22761562       0.01464626      -0.16410851
Cl      -0.01878907       0.00202005       0.00942277       12      -1.07278606       0.08800146       0.02496583      -0.00661046       0.07090105       0.00732996
13
Lattice="7.26870274 0.0 0.0 3.634351370000001 6.294881225397555 0.0 3.634351370000001 2.0982937417991856 5.934870934989993" Properties=species:S:1:pos:R:3:spacegroup_kinds:I:1:momenta:R:3:forces:R:3 spacegroup="P 1" unit_cell=conventional occupancy="_JSON {\"0\": {\"Li\": 1}, \"1\": {\"Li\": 1}, \"2\": {\"Li\": 1}, \"3\": {\"Li\": 1}, \"4\": {\"Li\": 1}, \"5\": {\"Li\": 1}, \"6\": {\"P\": 1}, \"7\": {\"S\": 1}, \"8\": {\"S\": 1}, \"9\": {\"S\": 1}, \"10\": {\"S\": 1}, \"11\": {\"S\": 1}, \"12\": {\"Cl\": 1}}" energy=-53.33686065673828 free_energy=-53.33686065673828 stress="-0.005267989356070757 0.00027205178048461676 0.0003910283849108964 0.00027205178048461676 0.0001661423739278689 -0.0015754085034132004 0.0003910283849108964 -0.0015754085034132004 0.0002737731847446412" pbc="T T T"
Li       9.26557344       7.22250128       3.07331154        0       0.20894941      -0.11205489      -0.04585389       0.07931557       0.04873569      -0.01365909
Li      12.56456376       5.30923188       5.81242244        1      -0.17315129      -0.06921289      -0.05265558      -0.14254440       0.08602758      -0.10241415
Li       9.28817145       5.28359344       5.73635118        2       0.05099997      -0.54582047      -0.08640109      -0.04714659      -0.07509254       0.22935556
Li      12.56553783       7.23162254       3.06324863        3      -0.07269500      -0.14667151      -0.35281342      -0.12614247      -0.03044119       0.07279737
Li      10.88274595       4.35084767       3.11861739        4       0.00068534      -0.06053108       0.22286893       0.10247112       0.06556943       0.05621389
Li      10.89400988       8.19245974       5.77582338        5      -0.12737371      -0.08524968      -0.10663243       0.01175954       0.01597301       0.08354245
P        7.27238990       4.19127562       2.97307792        6      -0.04525638       0.41961431       0.64474234      -0.19637242       0.47222641       0.03465521
S        7.29117402       6.14938692       2.28634996        7       0.81033252       0.00099694      -0.34299799      -0.07592607      -0.23324478      -0.00885389
S        8.93506369       3.24924291       2.27836772        8       0.18860136       0.23620406      -0.12679731       0.27944198      -0.27311313      -0.02177100
S        5.60625960       3.23407565       2.27772764        9       0.28166752       0.12116096      -0.45548933      -0.15099576      -0.07832141      -0.08616054
S        7.26808977       4.20872222       5.03348154       10      -0.18054319       0.19689194       0.49871110       0.03595422      -0.10306306      -0.07944860
S       10.89198894       6.28028925       4.45620942       11      -0.17605565      -0.25547710       0.15453507       0.23737600       0.01295673      -0.17513239
Cl      -0.02504741       0.00321194       0.00986681       12      -0.76616089       0.30014940       0.04878361      -0.00719072       0.09178720       0.01087517
13