13
Lattice="7.26870274 0.0 0.0 3.634351370000001 6.294881225397555 0.0 3.634351370000001 2.0982937417991856 5.934870934989993" Properties=species:S:1:pos:R:3:spacegroup_kinds:I:1:forces:R:3 spacegroup="P 1" unit_cell=conventional occupancy="_JSON {\"0\": {\"Li\": 1}, \"1\": {\"Li\": 1}, \"2\": {\"Li\": 1}, \"3\": {\"Li\": 1}, \"4\": {\"Li\": 1}, \"5\": {\"Li\": 1}, \"6\": {\"P\": 1}, \"7\": {\"S\": 1}, \"8\": {\"S\": 1}, \"9\": {\"S\": 1}, \"10\": {\"S\": 1}, \"11\": {\"S\": 1}, \"12\": {\"Cl\": 1}}" energy=-53.3634147644043 free_energy=-53.3634147644043 stress="-0.000794188235886395 -2.3536277637958847e-07 -1.6778179201537569e-07 -2.3536277637958847e-07 -0.0007939371280372143 -1.1874620042817696e-07 -1.6778179201537569e-07 -1.1874620042817696e-07 -0.0007939051138237119" pbc="T T T"
Li       9.25387995       7.24703237       3.10460814        0       0.00422493      -0.00243410       0.00344735
Li      12.55222827       5.34273008       5.79769826        1      -0.00421075       0.00243296      -0.00344113
Li       9.25387995       5.34273008       5.79769826        2       0.00422423       0.00243874      -0.00344659
Li      12.55222827       7.24703237       3.10460814        3      -0.00421163      -0.00243076       0.00344052
Li      10.90305411       4.39057894       3.10460814        4       0.00000246       0.00487612       0.00344834
Li      10.90305411       8.19918351       5.79769826        5       0.00000198      -0.00486354      -0.00344126
P        7.26870274       4.19658748       2.96743547        6       0.00008576       0.00004651       0.00003598
S        7.26870637       6.13578650       2.28182731        7      -0.00001791      -0.01090917       0.00384724
S        8.94810016       3.22699113       2.28182731        8      -0.00945765       0.00544003       0.00384709
S        5.58931258       3.22699113       2.28182731        9       0.00937778       0.00541280       0.00383063
S        7.26870637       4.19658958       5.02426588       10      -0.00001871      -0.00000976      -0.01156864
S       10.90305411       6.29488123       4.45115320       11      -0.00000137      -0.00000098      -0.00000084
Cl       0.00000000       0.00000000       0.00000000       12       0.00000086       0.00000118       0.00000126
