56
Lattice="10.7619164 0.0 0.0 -9.665296305262016 4.732958053065482 0.0 -0.5483100463354086 -2.3664790220718444 10.484177494289693" Properties=species:S:1:pos:R:3:spacegroup_kinds:I:1:momenta:R:3:forces:R:3 spacegroup="P 1" unit_cell=conventional occupancy="_JSON {\"0\": {\"H\": 1}, \"1\": {\"H\": 1}, \"2\": {\"H\": 1}, \"3\": {\"H\": 1}, \"4\": {\"H\": 1}, \"5\": {\"H\": 1}, \"6\": {\"H\": 1}, \"7\": {\"H\": 1}, \"8\": {\"H\": 1}, \"9\": {\"H\": 1}, \"10\": {\"H\": 1}, \"11\": {\"H\": 1}, \"12\": {\"H\": 1}, \"13\": {\"H\": 1}, \"14\": {\"H\": 1}, \"15\": {\"H\": 1}, \"16\": {\"H\": 1}, \"17\": {\"H\": 1}, \"18\": {\"H\": 1}, \"19\": {\"H\": 1}, \"20\": {\"H\": 1}, \"21\": {\"H\": 1}, \"22\": {\"H\": 1}, \"23\": {\"H\": 1}, \"24\": {\"H\": 1}, \"25\": {\"H\": 1}, \"26\": {\"H\": 1}, \"27\": {\"H\": 1}, \"28\": {\"H\": 1}, \"29\": {\"H\": 1}, \"30\": {\"H\": 1}, \"31\": {\"H\": 1}, \"32\": {\"C\": 1}, \"33\": {\"C\": 1}, \"34\": {\"C\": 1}, \"35\": {\"C\": 1}, \"36\": {\"C\": 1}, \"37\": {\"C\": 1}, \"38\": {\"C\": 1}, \"39\": {\"C\": 1}, \"40\": {\"C\": 1}, \"41\": {\"C\": 1}, \"42\": {\"C\": 1}, \"43\": {\"C\": 1}, \"44\": {\"C\": 1}, \"45\": {\"C\": 1}, \"46\": {\"C\": 1}, \"47\": {\"C\": 1}, \"48\": {\"O\": 1}, \"49\": {\"O\": 1}, \"50\": {\"O\": 1}, \"51\": {\"O\": 1}, \"52\": {\"O\": 1}, \"53\": {\"O\": 1}, \"54\": {\"O\": 1}, \"55\": {\"O\": 1}}" energy=-313.621826171875 free_energy=-313.621826171875 stress="-0.006905398331582546 -0.0013853192795068026 -0.004504724405705929 -0.0013853192795068026 0.00943912472575903 0.0056000263430178165 -0.004504724405705929 0.0056000263430178165 0.013407094404101372" pbc="T T T"
H        0.49738824       1.84331545       1.77824717        0      -0.10613515      -0.09781592       0.11564511      -0.18202311       0.31332305       0.59539717
H        0.10556150      -0.11663725       8.27653495        1       0.04015876      -0.13169757       0.14437727      -0.36897805      -0.78898525       0.22591048
H        6.62289116      -0.91207534       5.20265683        2      -0.16864533       0.10450157      -0.19164203       0.98594779      -0.03108525       0.77322710
H        3.36922909       0.56254927       5.08036101        3       0.12068477      -0.12390758       0.11664206      -0.39409643      -0.59535778      -0.23537204
H        5.95301282       0.59228782       3.38812084        4       0.14111202      -0.33747191      -0.07872013      -0.93092251      -0.50391877       0.87668049
H        5.01743970       0.42520649       7.32442013        5      -0.23162732       0.06489314      -0.14197831      -0.38864794      -1.26105642      -0.47848040
H       -1.57731787       0.54128681      10.53958340        6      -0.12407280      -0.08816617      -0.07763827      -0.37742507      -0.46801624       0.30721927
H        2.69863450       2.00433390       0.26116689        7      -0.05404110       0.01557055      -0.10226011      -0.72494757      -0.67532611      -0.86529899
H       -1.22303991       1.63674007       1.75940557        8      -0.05424918       0.24253135      -0.13897900      -0.49741960      -0.09367219       0.10530100
H       -8.93359124       2.96970993       8.47514753        9      -0.06042134      -0.12559464      -0.10762075       0.36623639      -0.63053846       0.55259693
H       -2.26849152       4.25936953       6.83350140       10       0.20578912       0.12214812       0.33238355      -0.06949992      -0.47618842      -0.34377766
H       -6.68836081       4.95609503       3.39407489       11      -0.06212348       0.10325947      -0.15892898       0.13254064      -0.56484985       0.15243483
H       -3.12925543       0.32645810       3.01954326       12       0.09286616       0.17897819      -0.00989659       0.31407636       0.11226875       0.01380340
H       -6.80751041       1.79512334       7.74588669       13       0.11314038      -0.05419762      -0.04503980      -2.35594368       0.59494948      -0.52510285
H       -1.67751176       0.97559889       8.80862409       14       0.00516380      -0.30016466      -0.16851919      -0.66054446       0.17537431       0.81925797
H       -7.85157879       2.25969175       2.02092898       15       0.06193697       0.16966542       0.04109164       0.45021480       0.30492920      -0.97372186
H       -1.03679263       0.54726093       4.10971796       16       0.09384590       0.18126154      -0.07858711       0.29053867       0.47455609       0.73893172
H        1.41496428       2.60741847       5.94194811       17       0.17914749       0.16207812      -0.08142886       0.04019551      -0.18982579       0.67823040
H       -0.64058345       2.00872450       6.06364874       18      -0.05634268       0.12337113       0.04032567      -0.53551483       0.51595747      -0.09275785
H        0.85977748      -0.92446404       4.06230110       19       0.08226655       0.01615342       0.13954055      -0.43777674      -0.05474937       0.42652512
H        7.07832349       1.52716378       0.77918433       20       0.03745942       0.06298892      -0.11847491      -0.51151395      -0.36469743      -0.19010344
H       -5.65481884       2.28567685       9.73114970       21       0.07723484       0.36926270      -0.07796331       0.09997413      -0.39056009       0.05157153
H        6.08095722      -2.02800051       9.57309350       22       0.04996105       0.13992036      -0.04251292       0.10452024      -0.44056630      -0.00563153
H       -5.39307828       3.26285505       1.28813542       23      -0.08191897      -0.05415592       0.26987088      -0.86359769      -0.75485408      -0.77634943
H       -0.07299425       0.27971671       1.81917001       24       0.13898018       0.34269311       0.14181174      -0.42564645      -0.34435633       0.62045568
H       -1.06700090      -1.51564008       8.21163876       25      -0.20145785       0.01373089       0.07616465      -0.17208013      -0.24383959       0.51164740
H       -2.96209857       2.60530208       6.43440353       26       0.06315813      -0.07174873      -0.16381554       0.16209994       0.09858967       0.31126329
H       -6.35719989       3.51669280       4.57538952       27       0.16449649       0.18567968       0.02440189      -0.60310960       1.40275037      -0.34498671
H       -3.82677255       2.00991052       3.18430544       28       0.08980611      -0.11710669      -0.00472143       0.23109160       0.02061918      -0.20068252
H       -5.17636436       2.03285267       7.19923418       29       0.10905479      -0.18779599       0.15105876      -0.36808833      -0.23565421       0.74254906
H       -0.79357736       4.53174515      -0.43569567       30      -0.12628188      -0.10201800      -0.01900762      -0.09976283       0.06220071       0.11299736
H        2.31575702       1.30675607      11.36317816       31       0.12164070       0.07458668      -0.08519193       0.08103973      -0.48912138      -0.09376531
C       -0.37163607       1.38708497       3.80590666       32       0.82677564       0.29513611       0.09766056       0.43048501      -0.84296048      -2.02712870
C        0.11847915      -1.18778298       6.49983782       33      -0.62840443      -0.18736549      -0.14628142      -0.37041256       0.27214855      -0.96542591
C       -0.97555877       2.96185316       5.57576504       34      -0.36449200      -1.07571454       0.20948691       0.37154755       0.17796500       0.59155822
C        1.35011583      -0.15700508       4.68315325       35      -0.02227817       0.95830777       0.13073031       0.73834240       1.50494826       0.40339616
C        6.36784113       0.86650850       1.33870140       36       0.30590277       0.88519402       1.28776791       1.97925544      -0.30296439       0.89317846
C       -5.53677832       1.29363399       9.24627698       37       0.27688716      -0.37684206       0.66636906      -0.66257513      -0.77058560       0.58603704
C       -3.39932689       1.69730083      10.02118756       38      -0.84112022      -0.44256693       0.59809832       0.37919843       0.54999775       0.65976220
C        4.71880454       2.50518189       0.70336300       39       0.38984882       0.88224267      -0.51305333      -0.59659183       1.44277799       0.49370563
C       -0.32683958       1.26219665       2.24609227       40      -0.63948317       0.50546183       0.23424375       0.77353323       0.79701352      -0.39456984
C       -0.05210434      -1.19852055       8.01058150       41       0.11582396      -0.65736749      -0.92747747       0.85165322       1.37445402      -1.02302003
C       -2.37909930       3.46525765       6.06278714       42      -0.05353636       0.08466503      -0.15002992      -0.40585378      -0.60534185      -1.67188275
C        2.83806346      -0.17358530       4.41939530       43       0.55230002       0.76816066      -0.43150015       1.06823218      -0.67908883       0.54369676
C        6.77902018       0.98017842       2.84378917       44      -1.12306905      -0.45029070       0.26640026      -0.51440519       0.02886914      -1.28143454
C       -5.86817708       1.36776550       7.79427945       45      -0.98980316      -0.05587478      -0.83441674       2.87887716       1.13958573      -0.55467212
C       -1.97699400       1.28319966       9.85895606       46       0.40697089      -0.18668256       0.33791185       1.72741485       0.51332921      -1.56751764
C        3.19008772       2.61285385       0.97606095       47       0.25747672       0.90120947      -0.18333305       1.07155180       1.22872519       1.82995701
O       -0.85758714       2.66103189       4.11713044       48       0.61684496      -0.37118799       1.25663700      -0.17584565       0.40347105       1.06925249
O        1.08909398      -0.23997554       6.12862834       49      -0.39618484      -0.37804409      -0.11483502       0.12259944      -0.37597781      -0.82797229
O       -1.16050460      -0.72093718       5.97406330       50      -0.34983675      -1.05740179      -0.27246521      -0.47366607      -0.41498393      -0.96765482
O        1.00795478       1.19208929       4.24044430       51      -0.03056968       0.15482696      -1.24559126      -1.03327560      -0.52625400       0.63129121
O       -3.10184431       4.20162626       0.97719078       52      -0.29226510       0.28802352      -0.94690537      -0.31202096       1.32850599      -0.04798353
O        4.30825700       0.33413963       9.75623658       53       0.02704164      -1.15722773      -0.33727116      -0.25940707       0.04012591       0.50475764
O       -4.24389650       0.74756650       9.49746222       54       0.41595731      -0.82784162       0.02625898       0.13964522       0.06730475      -0.42571169
O        5.02961361       1.21054925       1.07684138       55       0.87862652       0.61974652       1.29120828      -0.01921862      -0.82936442       0.05841069
