56
Lattice="10.7619164 0.0 0.0 -9.665296305262016 4.732958053065482 0.0 -0.5483100463354086 -2.3664790220718444 10.484177494289693" Properties=species:S:1:pos:R:3:spacegroup_kinds:I:1:momenta:R:3:forces:R:3 spacegroup="P 1" unit_cell=conventional occupancy="_JSON {\"0\": {\"H\": 1}, \"1\": {\"H\": 1}, \"2\": {\"H\": 1}, \"3\": {\"H\": 1}, \"4\": {\"H\": 1}, \"5\": {\"H\": 1}, \"6\": {\"H\": 1}, \"7\": {\"H\": 1}, \"8\": {\"H\": 1}, \"9\": {\"H\": 1}, \"10\": {\"H\": 1}, \"11\": {\"H\": 1}, \"12\": {\"H\": 1}, \"13\": {\"H\": 1}, \"14\": {\"H\": 1}, \"15\": {\"H\": 1}, \"16\": {\"H\": 1}, \"17\": {\"H\": 1}, \"18\": {\"H\": 1}, \"19\": {\"H\": 1}, \"20\": {\"H\": 1}, \"21\": {\"H\": 1}, \"22\": {\"H\": 1}, \"23\": {\"H\": 1}, \"24\": {\"H\": 1}, \"25\": {\"H\": 1}, \"26\": {\"H\": 1}, \"27\": {\"H\": 1}, \"28\": {\"H\": 1}, \"29\": {\"H\": 1}, \"30\": {\"H\": 1}, \"31\": {\"H\": 1}, \"32\": {\"C\": 1}, \"33\": {\"C\": 1}, \"34\": {\"C\": 1}, \"35\": {\"C\": 1}, \"36\": {\"C\": 1}, \"37\": {\"C\": 1}, \"38\": {\"C\": 1}, \"39\": {\"C\": 1}, \"40\": {\"C\": 1}, \"41\": {\"C\": 1}, \"42\": {\"C\": 1}, \"43\": {\"C\": 1}, \"44\": {\"C\": 1}, \"45\": {\"C\": 1}, \"46\": {\"C\": 1}, \"47\": {\"C\": 1}, \"48\": {\"O\": 1}, \"49\": {\"O\": 1}, \"50\": {\"O\": 1}, \"51\": {\"O\": 1}, \"52\": {\"O\": 1}, \"53\": {\"O\": 1}, \"54\": {\"O\": 1}, \"55\": {\"O\": 1}}" energy=-315.20623779296875 free_energy=-315.20623779296875 stress="0.0015259761130437255 -0.0007349440711550415 -5.875426154489105e-07 -0.0007349440711550415 -0.0014768134569749236 4.545530885025073e-08 -5.875426154489105e-07 4.545530885025073e-08 0.0016979567008093" pbc="T T T"
H       -0.01248427       2.27696696       1.83153339        0       0.26354636       0.05758816       0.17128558       0.07122763       0.02707712       0.05251672
H        0.46428407      -0.32702137       8.65264411        1       0.35723632       0.30052336      -0.15421514      -0.05205614       0.05564506      -0.05251553
H        7.11696904      -0.62167877       5.76820574        2       0.13651140      -0.03657588      -0.02448058       0.06071787       0.02959776      -0.06332476
H        3.54843712       0.20514534       4.71597175        3       0.04495575       0.01373704       0.24194406      -0.04159802       0.05318753       0.06330337
H        5.94175252       0.08951207       3.41055536        4       0.10004105       0.00919574       0.06893732      -0.07122654      -0.02707715      -0.05251748
H        4.91667413       0.32702137       7.07362213        5       0.03762731       0.23702154      -0.03633186       0.05205695      -0.05563832       0.05251869
H       -1.73601084       0.62167878       9.95806050        6       0.04090260      -0.15000140      -0.41043770      -0.06071899      -0.02958688       0.06332475
H        2.38083113       2.16133369       0.52611700        7       0.07639930       0.13373956      -0.11953039       0.04159788      -0.05318631      -0.06330125
H       -1.38564785       1.18011340       2.11584331        8       0.34764813      -0.24942510       0.01968671       0.00912153       0.09641403       0.00989612
H       -8.45014457       2.81694541       8.36833418        9      -0.04487542       0.24826795       0.27191556       0.03391358       0.09078155      -0.00993983
H       -2.58250803       2.70418269       6.85836100       10       0.00836639       0.05472545      -0.13232917       0.03144364       0.09145397       0.01228185
H       -6.70499477       3.65935988       3.62581649       11      -0.35280026      -0.06406840       0.05024236       0.01202266       0.09588346      -0.01239178
H       -3.44700030       1.18636563       3.12624543       12       0.17759995       0.19181929      -0.04741865      -0.00912227      -0.09641429      -0.00989495
H       -6.59610993       1.91601265       7.35793206       13      -0.06659844      -0.18039638      -0.21144164      -0.03391580      -0.09078134       0.00994132
H       -1.70183007       2.02877537       8.86790524       14      -0.29590695       0.31510437      -0.07166042      -0.03144051      -0.09144852      -0.01229310
H       -7.79294969       3.44007720       1.61627226       15      -0.10166361      -0.21365327       0.15571300      -0.01202467      -0.09588438       0.01238976
H       -0.77544238       0.72057867       4.36236141       16      -0.29135246      -0.04383699      -0.13778795      -0.05580267      -0.06497604       0.06553197
H        1.56164860       2.67260202       6.12181608       17       0.04513471      -0.09416448      -0.19034861       0.02151180      -0.08285747      -0.06550528
H       -0.46393564       1.89516633       6.16016720       18      -0.02388752       0.06229365       0.02104621       0.04679106      -0.08891329       0.03981821
H        0.70181139      -0.86845994       4.32401029       19       0.02574107      -0.11427781      -0.05287528      -0.08095963      -0.05914062      -0.03975117
H        6.70471062       1.64590036       0.87972733       20      -0.14286290      -0.07079985      -0.14118650       0.05580524       0.06498083      -0.06553414
H       -5.84598670       2.06035604       9.60445016       21      -0.29753233       0.02254640      -0.04431235      -0.02151356       0.08285312       0.06550363
H        5.84489385      -1.89516633       9.56609904       22      -0.28312851       0.06560536      -0.15494221      -0.04679337       0.08891565      -0.03981562
H       -5.53445954       3.23493897       0.91807845       23      -0.02208037       0.11416853       0.04301970       0.08095697       0.05913990       0.03974658
H        0.25131050       0.51347389       1.94957474       24       0.15959789      -0.21361364       0.07505588      -0.00851084      -0.01871576      -0.03717786
H       -0.54820374      -1.79480395       8.53460275       25      -0.12868866      -0.15316038      -0.08588331      -0.00032980      -0.02044755       0.03709360
H       -2.80766320       2.46899490       5.11315433       26      -0.07305533       0.00146869      -0.17781296      -0.04083858      -0.01125214       0.00405105
H       -6.60619587       3.34910738       5.37102316       27       0.12888264       0.07074453      -0.23064715       0.03167338      -0.02802485      -0.00411316
H       -5.08395866       1.85300514       3.29251401       28       0.22099581       0.30740365       0.21601993       0.00851479       0.01871322       0.03717720
H       -4.83275446       1.79480396       7.19166349       29      -0.04673026      -0.18471461       0.19482948       0.00034708       0.02045757      -0.03709877
H       -0.92836486       4.63044218       0.12893441       30      -0.09883902       0.19431951       0.04569436       0.04083290       0.01124360      -0.00406388
H        2.32185777       1.38385068      10.35524308       31       0.15211596       0.04921952       0.12080102      -0.03167595       0.02802760       0.00411068
C       -0.12835063       1.44534837       3.84841655       32      -0.28778073       0.91754073       0.18270710      -0.01445568       0.09213199      -0.08206761
C        0.20260826      -1.12485611       6.63576095       33       0.00096406       0.97078231      -0.67128192       0.05361576       0.07627261       0.08205822
C       -0.77226604       2.84130358       5.69336968       34      -0.96473690       0.45234422      -0.54337998      -0.06051213       0.10292968       0.03487856
C        1.39483372      -0.15433229       4.79080781       35       0.83737779      -0.34833687      -0.35976593       0.09947443       0.06571209      -0.03489107
C        6.05761888       0.92113066       1.39367220       36       0.73780001       0.71679960       1.01054651       0.01444618      -0.09213807       0.08206829
C       -5.58356646       1.12485611       9.09050530       37       0.36600935      -0.57579551       1.35161317      -0.05360156      -0.07626334      -0.08206066
C       -3.51207206       1.89165448      10.03289656       38      -0.27702103       0.36712178       0.74445208       0.06052530      -0.10293398      -0.03488849
C        4.53443453       2.52081132       0.45128094       39      -0.47025582       0.22782501       0.51146167      -0.09947094      -0.06572086       0.03490300
C       -0.32593927       1.35886302       2.34265801       40      -0.11966996      -0.73251108       0.28611321      -0.02487603      -0.04884209       0.03836647
C        0.34202778      -1.28942579       8.14151949       41       0.57030904      -0.50578053       0.01064034       0.00090468      -0.05509150      -0.03821141
C       -2.26824862       3.05565688       5.86632716       42      -0.48098077       0.96238649       0.55365818       0.02524444      -0.06073745       0.01393194
C        2.83264719      -0.61974062       4.61785033       43      -0.04860277      -0.55844948       0.33742963      -0.04931962      -0.04330972      -0.01374532
C        6.25520752       1.00761601       2.89943074       44      -0.70747446      -0.11378709      -0.42767829       0.02487215       0.04884414      -0.03836614
C       -5.72298598       1.28942580       7.58474676       45       0.19434055       0.24831833       0.14297097      -0.00092410       0.05507660       0.03821299
C       -2.01608948       1.67730118       9.85993908       46       0.09740524      -0.72425149      -0.69205550      -0.02525495       0.06073046      -0.01389964
C        3.09662106       2.98621965       0.62423841       47      -0.12331172      -0.02208015       0.38636924       0.04932642       0.04330698       0.01374423
O       -0.42625656       2.75924355       4.28180099       48       1.20625674       0.48604619      -0.44497158       0.00567060      -0.06416592       0.01081704
O        1.04798334      -0.07585512       6.20237650       49       0.42305791      -1.01659881      -0.20166176      -0.03317373      -0.05508554      -0.01086416
O       -1.17294689      -0.80803189       6.28015861       50      -0.36133290       0.99731317      -0.30860065      -0.00324903      -0.06212887      -0.01994153
O        1.24638404       1.12493657       4.20401888       51      -0.92624698      -0.21254257      -0.34164539      -0.02462104      -0.05716449       0.01989405
O       -3.30977150       4.34019353       0.96028775       52       0.26500009      -0.83301049      -0.49473951      -0.00567061       0.06416528      -0.01082184
O        4.33297486       0.07585512       9.52388974       53      -0.48283211      -0.49689578       1.25894465       0.03316802       0.05508608       0.01086686
O       -4.20801131       0.80803190       9.44610763       54       0.43498781      -0.06064940      -0.51538975       0.00324830       0.06213029       0.01994704
O        4.68288421       1.24154246       1.03806987       55       0.06343698      -0.82659266      -1.04828579       0.02462532       0.05716905      -0.01989774
56
Lattice="10.7619164 0.0 0.0 -9.665296305262016 4.732958053065482 0.0 -0.5483100463354086 -2.3664790220718444 10.484177494289693" Properties=species:S:1:pos:R:3:spacegroup_kinds:I:1:momenta:R:3:forces:R:3 spacegroup="P 1" unit_cell=conventional occupancy="_JSON {\"0\": {\"H\": 1}, \"1\": {\"H\": 1}, \"2\": {\"H\": 1}, \"3\": {\"H\": 1}, \"4\": {\"H\": 1}, \"5\": {\"H\": 1}, \"6\": {\"H\": 1}, \"7\": {\"H\": 1}, \"8\": {\"H\": 1}, \"9\": {\"H\": 1}, \"10\": {\"H\": 1}, \"11\": {\"H\": 1}, \"12\": {\"H\": 1}, \"13\": {\"H\": 1}, \"14\": {\"H\": 1}, \"15\": {\"H\": 1}, \"16\": {\"H\": 1}, \"17\": {\"H\": 1}, \"18\": {\"H\": 1}, \"19\": {\"H\": 1}, \"20\": {\"H\": 1}, \"21\": {\"H\": 1}, \"22\": {\"H\": 1}, \"23\": {\"H\": 1}, \"24\": {\"H\": 1}, \"25\": {\"H\": 1}, \"26\": {\"H\": 1}, \"27\": {\"H\": 1}, \"28\": {\"H\": 1}, \"29\": {\"H\": 1}, \"30\": {\"H\": 1}, \"31\": {\"H\": 1}, \"32\": {\"C\": 1}, \"33\": {\"C\": 1}, \"34\": {\"C\": 1}, \"35\": {\"C\": 1}, \"36\": {\"C\": 1}, \"37\": {\"C\": 1}, \"38\": {\"C\": 1}, \"39\": {\"C\": 1}, \"40\": {\"C\": 1}, \"41\": {\"C\": 1}, \"42\": {\"C\": 1}, \"43\": {\"C\": 1}, \"44\": {\"C\": 1}, \"45\": {\"C\": 1}, \"46\": {\"C\": 1}, \"47\": {\"C\": 1}, \"48\": {\"O\": 1}, \"49\": {\"O\": 1}, \"50\": {\"O\": 1}, \"51\": {\"O\": 1}, \"52\": {\"O\": 1}, \"53\": {\"O\": 1}, \"54\": {\"O\": 1}, \"55\": {\"O\": 1}}" energy=-314.163330078125 free_energy=-314.163330078125 stress="0.0017965054139494896 -0.006295074708759785 0.0040649245493113995 -0.006295074708759785 0.002897541504353285 0.006800150498747826 0.0040649245493113995 0.006800150498747826 -0.0044736675918102264" pbc="T T T"
H        0.12223868       2.21335572       1.84744831        0      -0.06388211      -0.04107993      -0.23331081      -0.34890473      -0.46717727       0.26391584
H        0.31702082      -0.21474884       8.50409133        1      -0.41596653       0.28241814       0.13417999       0.19316739      -0.82259071      -0.04442029
H        7.16689579      -0.52337015       5.79422142        2      -0.01099344       0.09115221       0.18553095      -0.25331450       0.53084290      -0.08150271
H        3.56769345       0.19128017       4.81695805        3       0.00635042       0.03106401      -0.05661318      -0.45246923      -0.59983313       0.03513578
H        5.89857388       0.12906184       3.45590355        4      -0.13662983       0.06346633       0.07412536      -0.11012709      -0.04154537      -0.10463387
H        5.01440557       0.32414386       7.14335940        5       0.11996967      -0.01313409       0.16304599      -0.17231478      -0.44180480      -0.12289502
H       -1.69404183       0.62953433       9.70230146        6      -0.06773579       0.00953614      -0.07983934      -0.29939818      -0.31745857       0.05526310
H        2.37945908       2.25462943       0.31380999        7      -0.10899677       0.12801574      -0.23887815      -0.36571077      -0.41984630      -0.02494949
H       -1.28062217       1.09681358       2.00394184        8       0.10394093       0.17626285      -0.14567624      -0.56132519      -0.12197595      -0.18949601
H       -8.36548931       3.00985762       8.44664934        9       0.01874362       0.07750822      -0.14054408       0.39231971      -0.31946772      -0.01170111
H       -2.54664932       2.78893571       6.82205309       10       0.03048610       0.25775618      -0.04488827      -0.41237289      -0.20837808       1.19028473
H       -6.74143411       3.80633215       3.57290632       11       0.32050255       0.15943879       0.02898746       0.31104082       0.03237024       0.37734771
H       -3.41360544       1.09458058       3.05616300       12       0.34318364      -0.23802469       0.07743262      -0.50854141       0.08234636       0.33155939
H       -6.59466946       1.88031611       7.31880470       13       0.01536659       0.03548311       0.08656122      -0.08189672      -0.12137363       0.20796451
H       -1.92963188       2.16013647       8.81427840       14       0.12531085      -0.02323654      -0.06972991       0.40313590      -0.12264382      -0.32056475
H       -7.86690874       3.29972359       1.71696130       15      -0.08477285      -0.03159837       0.12293854      -0.01434005      -0.41004440      -0.77136403
H       -0.90235497       0.77646747       4.33988636       16      -0.08685989      -0.05814784       0.28342550       0.40912670       0.11714909       0.19912352
H        1.57326848       2.69585852       6.02312946       17       0.00715138      -0.12380910      -0.16254839      -0.29899237      -0.23123106       0.25480577
H       -0.61632288       1.91476307       6.12879312       18      -0.08876030       0.01924328      -0.05101230       0.36619440      -0.32495376       0.18464774
H        0.76835889      -0.91704691       4.28843427       19      -0.15605139       0.01894763       0.06988648      -0.03238311       0.22899678       0.08527139
H        6.70609319       1.62092017       0.91686470       20       0.01929227      -0.19191464       0.26163563       0.76997250       0.63578135      -0.47934785
H       -5.82009079       2.01052711       9.75507014       21       0.30326577       0.03656590       0.14022310      -0.00922742      -0.03740990      -0.50983781
H        5.81093416      -1.87039273       9.61285226       22       0.20657588       0.20659808      -0.02039158       0.37428078      -0.52969104       0.33498013
H       -5.59543448       3.24736132       1.04015515       23      -0.04224107      -0.11354968       0.21265910       0.13948414      -0.29077351      -0.10894278
H        0.42784605       0.48710587       2.10176744       24       0.30049809      -0.13611029      -0.00468412      -0.59484553       0.09816539      -0.19185229
H       -0.53518871      -1.77813125       8.52127415       25       0.00655560       0.08690828       0.10595498       0.65831959      -0.06782413      -0.13440594
H       -2.96285659       2.59157646       5.13270584       26      -0.25300653       0.03340923       0.06572331       0.52107179       0.35914695       0.31286669
H       -6.55716744       3.24215841       5.23786851       27      -0.16752532      -0.02805325      -0.10766347       0.03742146      -0.88643521       0.79596251
H       -5.03685281       1.93128226       3.36334311       28      -0.15021140       0.12582532      -0.10191882       0.62859195      -0.83863533      -0.54655409
H       -4.85344606       1.77016483       7.27072607       29      -0.06649185       0.16884065       0.01181305       1.25072968       0.88673586      -0.39224574
H       -0.86175594       4.56432680       0.03964643       30       0.17846369      -0.19144319      -0.07943208      -0.39176148      -0.36752534      -0.55813456
H        2.38301366       1.54051147      10.51636395       31      -0.19060843       0.01911317       0.25222913       0.14691022      -0.16933909       0.11266147
C       -0.17581897       1.46226534       3.84974164       32      -0.18515661      -0.57459540      -0.22058216       0.27883017      -0.44003308       0.08531624
C        0.22192601      -1.12504878       6.58997345       33      -0.07512315      -0.46550111       0.08488201      -0.55275631      -0.80494809       0.23250493
C       -0.84336858       2.87265024       5.66245298       34       0.04319850       0.29158543      -0.23378186       1.13018084       0.50398833      -0.24388619
C        1.43229075      -0.18392811       4.79404744       35      -0.39846590      -0.16641803      -0.07506730      -1.39262414       0.15177751      -0.49470305
C        6.06713489       0.93900034       1.43224266       36      -0.39497094      -0.32073256      -0.80955197      -1.35843754      -1.50483489      -0.67591518
C       -5.58329452       1.10380716       9.15771830       37      -0.36193229      -0.01752096       0.07000822      -0.01275427       0.62094873      -0.17375585
C       -3.52181740       1.89477509      10.09402552       38       0.16177545      -0.52863225       0.28467035       0.13258356       0.16549833      -2.07575512
C        4.51640584       2.52102928       0.51005713       39       0.36138324      -0.43527662       0.58505052       0.14679146       0.12096225       0.07939830
C       -0.28405292       1.30051715       2.35611376       40       0.19195142      -0.55821562       0.03644889       1.44870019       0.72396910      -0.52214742
C        0.37449210      -1.27541847       8.11748206       41       0.14753547       0.49373559      -0.46888069      -1.73078036       1.54831433      -0.36516690
C       -2.30636825       3.14844780       5.85186585       42      -0.25949226       1.26103821      -0.54787170      -0.30482954      -0.37169445      -1.63763332
C        2.84200270      -0.65064889       4.64737901       43       0.56034554      -0.10141620      -0.32885501       0.85266113       1.99939513      -1.91113949
C        6.24443652       1.02088159       2.92126915       44       0.40080575      -0.06552321       0.31202141       0.30223942       0.54350483       0.34550408
C       -5.72072981       1.29321541       7.63361805       45      -0.11247007      -0.13664566       1.05760900      -1.14459491      -0.53769821       0.96596217
C       -2.05012740       1.65516314       9.77267023       46      -0.47453594       0.69520821      -0.54057447       0.62453443       1.48064995       1.00712442
C        3.08351632       3.00246313       0.64822752       47      -0.01605116       0.11556158       0.01381080       0.20967373       0.51371861       0.80870342
O       -0.35411231       2.78763684       4.26978768       48       0.22350744       0.25056257       0.25663335      -1.10039926       0.01685369       0.20638122
O        1.06167984      -0.11984225       6.16496940       49      -0.16821840      -0.55392437      -0.45958742       0.11152018       0.85498607       0.49101344
O       -1.21357942      -0.78977938       6.25156088       50      -0.33543362      -0.44277461      -0.25066831       0.73390603      -0.39541656       0.41342193
O        1.20697421       1.13024275       4.19342497       51       0.17004603       0.12777080       0.14454298       0.59316027      -1.04898596       0.70126671
O       -3.31489246       4.29054000       0.93958223       52      -0.41183548      -0.17658517       0.40053857      -0.10514000       0.93135130       2.17608833
O        4.33821577       0.06296653       9.62059752       53       0.35992271       0.45633102       0.21462774       0.43338162       0.52332360      -1.13898230
O       -4.17202258       0.83010248       9.41381798       54       0.02043452       0.24051378      -0.02777869      -0.78840971      -0.43915981       0.27765155
O        4.70668948       1.20000078       0.96656716       55       0.53785614      -0.22599708      -0.23686588      -0.20127924       0.02995304       1.29980659
56
Lattice="10.7619164 0.0 0.0 -9.665296305262016 4.732958053065482 0.0 -0.5483100463354086 -2.3664790220718444 10.484177494289693" Properties=species:S:1:pos:R:3:spacegroup_kinds:I:1:momenta:R:3:forces:R:3 spacegroup="P 1" unit_cell=conventional occupancy="_JSON {\"0\": {\"H\": 1}, \"1\": {\"H\": 1}, \"2\": {\"H\": 1}, \"3\": {\"H\": 1}, \"4\": {\"H\": 1}, \"5\": {\"H\": 1}, \"6\": {\"H\": 1}, \"7\": {\"H\": 1}, \"8\": {\"H\": 1}, \"9\": {\"H\": 1}, \"10\": {\"H\": 1}, \"11\": {\"H\": 1}, \"12\": {\"H\": 1}, \"13\": {\"H\": 1}, \"14\": {\"H\": 1}, \"15\": {\"H\": 1}, \"16\": {\"H\": 1}, \"17\": {\"H\": 1}, \"18\": {\"H\": 1}, \"19\": {\"H\": 1}, \"20\": {\"H\": 1}, \"21\": {\"H\": 1}, \"22\": {\"H\": 1}, \"23\": {\"H\": 1}, \"24\": {\"H\": 1}, \"25\": {\"H\": 1}, \"26\": {\"H\": 1}, \"27\": {\"H\": 1}, \"28\": {\"H\": 1}, \"29\": {\"H\": 1}, \"30\": {\"H\": 1}, \"31\": {\"H\": 1}, \"32\": {\"C\": 1}, \"33\": {\"C\": 1}, \"34\": {\"C\": 1}, \"35\": {\"C\": 1}, \"36\": {\"C\": 1}, \"37\": {\"C\": 1}, \"38\": {\"C\": 1}, \"39\": {\"C\": 1}, \"40\": {\"C\": 1}, \"41\": {\"C\": 1}, \"42\": {\"C\": 1}, \"43\": {\"C\": 1}, \"44\": {\"C\": 1}, \"45\": {\"C\": 1}, \"46\": {\"C\": 1}, \"47\": {\"C\": 1}, \"48\": {\"O\": 1}, \"49\": {\"O\": 1}, \"50\": {\"O\": 1}, \"51\": {\"O\": 1}, \"52\": {\"O\": 1}, \"53\": {\"O\": 1}, \"54\": {\"O\": 1}, \"55\": {\"O\": 1}}" energy=-313.85382080078125 free_energy=-313.85382080078125 stress="0.013761446811258793 -0.0048794192261993885 -0.005674287676811218 -0.0048794192261993885 0.006163882091641426 0.005476066377013922 -0.005674287676811218 0.005476066377013922 -0.001812806585803628" pbc="T T T"
H        0.15152031       2.21865815       1.86996602        0       0.18670820      -0.17536435       0.06887276      -0.25462788      -0.83075136       0.05804595
H        0.10920513      -0.19334250       8.62244512        1      -0.00897899       0.26460711      -0.03107045       0.20135839      -1.45994306      -1.01799345
H        7.15516426      -0.39883636       5.76710617        2       0.22383247       0.15937103      -0.34067692       0.18644533       0.19728145      -0.26340395
H        3.55287383       0.14212045       5.10648282        3      -0.16824430      -0.25377431       0.22539386      -0.53552926      -0.32389817      -0.69896144
H        5.71904791       0.28007950       3.48878629        4      -0.14175104       0.06957629       0.07981264      -0.42629009      -0.45673162       0.12704465
H        5.07217452       0.33732693       7.23278706        5      -0.02221064       0.07819996       0.03358501       0.14585042      -0.33883458      -0.34743726
H       -1.86337467       0.61454902       9.70908643        6       0.00209978      -0.06951329       0.02682900       0.35397241       0.27212688       0.03441982
H        2.40409160       2.23500123       0.27412514        7      -0.05904502      -0.08227835      -0.03197366       0.20294979       0.43273634      -0.32657409
H       -1.27779550       1.10993534       2.00836776        8      -0.09536124      -0.13044316       0.02708163      -0.83864838       0.04003068      -0.43664896
H       -8.33962592       3.21420926       8.35225632        9       0.17273729       0.29406249      -0.08361756       0.23366855       0.22765967      -0.09218783
H       -2.54133529       3.01261329       6.85842860       10       0.10491060       0.07367801       0.12018046      -0.11240882      -0.33224303       0.81576598
H       -6.39093360       3.84895163       3.60576968       11       0.14443678       0.00657623      -0.00789883      -0.26307502       0.31059891      -0.29987448
H       -3.37778200       0.94136163       3.24468012       12       0.01522223      -0.07500942       0.19342065      -1.33400726      -0.10755493      -0.76893318
H       -6.68609554       1.78694175       7.51153388       13      -0.08667745      -0.27258752      -0.01170121      -0.20094676      -0.13165206      -0.15521500
H       -1.76453244       2.05976713       8.70170609       14       0.02189826      -0.10309637       0.09738965      -0.31269401       0.19350342       0.31043965
H       -7.95446005       3.02340547       1.79564971       15      -0.04973579      -0.11226854       0.02076876       0.41189581       0.38057649      -1.18562281
H       -0.80018663       0.77039128       4.49092967       16       0.00831365      -0.06072609      -0.00660591       0.00096937       0.17438652      -0.99411631
H        1.44500776       2.50713073       6.17382260       17       0.01225011      -0.28997335      -0.01209773       0.24866307       1.14404011       0.13491784
H       -0.56090751       1.92546788       6.04306250       18       0.00912416       0.02953095      -0.02228975      -0.35387188      -0.16754840       0.13082865
H        0.67939899      -0.89355047       4.27079632       19       0.07644891      -0.05095188      -0.04691389       0.30056709      -0.10530329      -0.07735422
H        6.74714432       1.49845899       0.85340926       20      -0.11245867      -0.08927474      -0.22057045       0.51639998       1.18711185      -0.49470341
H       -5.80988210       2.10952457       9.71365903       21      -0.20491592       0.06817245      -0.10894756       0.02467419      -0.34780258      -0.22419578
H        5.87596101      -1.83571110       9.70363726       22      -0.16165004       0.07076765       0.03590477      -0.15178931      -0.88951451      -0.00086604
H       -5.50015877       3.11440190       1.13784144       23       0.11933117       0.03126399      -0.00442147      -0.11864723       0.35621214      -0.32354701
H        0.36855214       0.33657748       1.99417347       24      -0.04607064      -0.23447398      -0.15432105      -1.04204524       1.71019816       0.43702310
H       -0.32413899      -2.00709538       8.53026261       25       0.20339003      -0.17844325      -0.18322126       0.05246343       0.67888963      -0.27905270
H       -3.08714237       2.74677634       5.19721879       26      -0.01915487       0.07455436      -0.09249898       0.58998269       0.03474089       0.12558098
H       -6.69673467       3.25872583       5.21696364       27      -0.09696500      -0.06689046      -0.04755539       0.17544182      -1.07493973       0.50442845
H       -4.83143355       2.04721361       3.16449859       28       0.33766972       0.12941238       0.00705004       0.39477724      -1.34767103      -0.01897138
H       -4.93754020       1.99042848       7.37634375       29       0.05869063       0.23203803       0.01089277      -0.29874080      -0.47476640      -0.05642280
H       -0.81005388       4.51876356       0.00822823       30      -0.20155787       0.23295177      -0.03457236      -0.26692247      -0.02007037      -0.48483098
H        2.48120423       1.62674274      10.66760464       31       0.30393417      -0.01816206       0.05312328      -0.25146651      -0.60053056       0.38425452
C       -0.17497680       1.41202890       3.81608592       32       0.11041234      -0.26316048      -0.10980100       0.95673031       0.41550255       1.33579731
C        0.16861399      -1.18805866       6.60335742       33      -0.76776849       0.02199968       0.67403966      -0.22193669       0.09040233      -0.69300807
C       -0.81165543       2.89924228       5.59186424       34      -0.05282376       0.32732998      -0.63230714      -1.19237494      -0.34071293       0.60169715
C        1.38527142      -0.18167027       4.74198784       35       0.10269948       0.21879237      -0.68694706       0.81695127      -0.55122811      -0.59414792
C        6.06620577       0.86818200       1.37965230       36       0.53230744      -0.54626194       0.08532776      -0.00822040      -0.53996438       1.85033333
C       -5.59710018       1.15461054       9.17270547       37       0.05871106       1.06856372       0.55336475       0.70454431       0.84736562       1.79725325
C       -3.48648166       1.86752585      10.06803997       38       0.30032622       0.37939378      -0.58623129      -0.95997405       1.52576244      -0.53066021