56
Lattice="10.7619164 0.0 0.0 -9.665296305262016 4.732958053065482 0.0 -0.5483100463354086 -2.3664790220718444 10.484177494289693" Properties=species:S:1:pos:R:3:spacegroup_kinds:I:1:forces:R:3 spacegroup="P 1" unit_cell=conventional occupancy="_JSON {\"0\": {\"H\": 1}, \"1\": {\"H\": 1}, \"2\": {\"H\": 1}, \"3\": {\"H\": 1}, \"4\": {\"H\": 1}, \"5\": {\"H\": 1}, \"6\": {\"H\": 1}, \"7\": {\"H\": 1}, \"8\": {\"H\": 1}, \"9\": {\"H\": 1}, \"10\": {\"H\": 1}, \"11\": {\"H\": 1}, \"12\": {\"H\": 1}, \"13\": {\"H\": 1}, \"14\": {\"H\": 1}, \"15\": {\"H\": 1}, \"16\": {\"H\": 1}, \"17\": {\"H\": 1}, \"18\": {\"H\": 1}, \"19\": {\"H\": 1}, \"20\": {\"H\": 1}, \"21\": {\"H\": 1}, \"22\": {\"H\": 1}, \"23\": {\"H\": 1}, \"24\": {\"H\": 1}, \"25\": {\"H\": 1}, \"26\": {\"H\": 1}, \"27\": {\"H\": 1}, \"28\": {\"H\": 1}, \"29\": {\"H\": 1}, \"30\": {\"H\": 1}, \"31\": {\"H\": 1}, \"32\": {\"C\": 1}, \"33\": {\"C\": 1}, \"34\": {\"C\": 1}, \"35\": {\"C\": 1}, \"36\": {\"C\": 1}, \"37\": {\"C\": 1}, \"38\": {\"C\": 1}, \"39\": {\"C\": 1}, \"40\": {\"C\": 1}, \"41\": {\"C\": 1}, \"42\": {\"C\": 1}, \"43\": {\"C\": 1}, \"44\": {\"C\": 1}, \"45\": {\"C\": 1}, \"46\": {\"C\": 1}, \"47\": {\"C\": 1}, \"48\": {\"O\": 1}, \"49\": {\"O\": 1}, \"50\": {\"O\": 1}, \"51\": {\"O\": 1}, \"52\": {\"O\": 1}, \"53\": {\"O\": 1}, \"54\": {\"O\": 1}, \"55\": {\"O\": 1}}" energy=-315.20623779296875 free_energy=-315.20623779296875 stress="0.0015259761130437255 -0.0007349440711550415 -5.875426154489105e-07 -0.0007349440711550415 -0.0014768134569749236 4.545530885025073e-08 -5.875426154489105e-07 4.545530885025073e-08 0.0016979567008093" pbc="T T T"
H       -0.01248427       2.27696696       1.83153339        0       0.07122763       0.02707712       0.05251672
H        0.46428407      -0.32702137       8.65264411        1      -0.05205614       0.05564506      -0.05251553
H        7.11696904      -0.62167877       5.76820574        2       0.06071787       0.02959776      -0.06332476
H        3.54843712       0.20514534       4.71597175        3      -0.04159802       0.05318753       0.06330337
H        5.94175252       0.08951207       3.41055536        4      -0.07122654      -0.02707715      -0.05251748
H        4.91667413       0.32702137       7.07362213        5       0.05205695      -0.05563832       0.05251869
H       -1.73601084       0.62167878       9.95806050        6      -0.06071899      -0.02958688       0.06332475
H        2.38083113       2.16133369       0.52611700        7       0.04159788      -0.05318631      -0.06330125
H       -1.38564785       1.18011340       2.11584331        8       0.00912153       0.09641403       0.00989612
H       -8.45014457       2.81694541       8.36833418        9       0.03391358       0.09078155      -0.00993983
H       -2.58250803       2.70418269       6.85836100       10       0.03144364       0.09145397       0.01228185
H       -6.70499477       3.65935988       3.62581649       11       0.01202266       0.09588346      -0.01239178
H       -3.44700030       1.18636563       3.12624543       12      -0.00912227      -0.09641429      -0.00989495
H       -6.59610993       1.91601265       7.35793206       13      -0.03391580      -0.09078134       0.00994132
H       -1.70183007       2.02877537       8.86790524       14      -0.03144051      -0.09144852      -0.01229310
H       -7.79294969       3.44007720       1.61627226       15      -0.01202467      -0.09588438       0.01238976
H       -0.77544238       0.72057867       4.36236141       16      -0.05580267      -0.06497604       0.06553197
H        1.56164860       2.67260202       6.12181608       17       0.02151180      -0.08285747      -0.06550528
H       -0.46393564       1.89516633       6.16016720       18       0.04679106      -0.08891329       0.03981821
H        0.70181139      -0.86845994       4.32401029       19      -0.08095963      -0.05914062      -0.03975117
H        6.70471062       1.64590036       0.87972733       20       0.05580524       0.06498083      -0.06553414
H       -5.84598670       2.06035604       9.60445016       21      -0.02151356       0.08285312       0.06550363
H        5.84489385      -1.89516633       9.56609904       22      -0.04679337       0.08891565      -0.03981562
H       -5.53445954       3.23493897       0.91807845       23       0.08095697       0.05913990       0.03974658
H        0.25131050       0.51347389       1.94957474       24      -0.00851084      -0.01871576      -0.03717786
H       -0.54820374      -1.79480395       8.53460275       25      -0.00032980      -0.02044755       0.03709360
H       -2.80766320       2.46899490       5.11315433       26      -0.04083858      -0.01125214       0.00405105
H       -6.60619587       3.34910738       5.37102316       27       0.03167338      -0.02802485      -0.00411316
H       -5.08395866       1.85300514       3.29251401       28       0.00851479       0.01871322       0.03717720
H       -4.83275446       1.79480396       7.19166349       29       0.00034708       0.02045757      -0.03709877
H       -0.92836486       4.63044218       0.12893441       30       0.04083290       0.01124360      -0.00406388
H        2.32185777       1.38385068      10.35524308       31      -0.03167595       0.02802760       0.00411068
C       -0.12835063       1.44534837       3.84841655       32      -0.01445568       0.09213199      -0.08206761
C        0.20260826      -1.12485611       6.63576095       33       0.05361576       0.07627261       0.08205822
C       -0.77226604       2.84130358       5.69336968       34      -0.06051213       0.10292968       0.03487856
C        1.39483372      -0.15433229       4.79080781       35       0.09947443       0.06571209      -0.03489107
C        6.05761888       0.92113066       1.39367220       36       0.01444618      -0.09213807       0.08206829
C       -5.58356646       1.12485611       9.09050530       37      -0.05360156      -0.07626334      -0.08206066
C       -3.51207206       1.89165448      10.03289656       38       0.06052530      -0.10293398      -0.03488849
C        4.53443453       2.52081132       0.45128094       39      -0.09947094      -0.06572086       0.03490300
C       -0.32593927       1.35886302       2.34265801       40      -0.02487603      -0.04884209       0.03836647
C        0.34202778      -1.28942579       8.14151949       41       0.00090468      -0.05509150      -0.03821141
C       -2.26824862       3.05565688       5.86632716       42       0.02524444      -0.06073745       0.01393194
C        2.83264719      -0.61974062       4.61785033       43      -0.04931962      -0.04330972      -0.01374532
C        6.25520752       1.00761601       2.89943074       44       0.02487215       0.04884414      -0.03836614
C       -5.72298598       1.28942580       7.58474676       45      -0.00092410       0.05507660       0.03821299
C       -2.01608948       1.67730118       9.85993908       46      -0.02525495       0.06073046      -0.01389964
C        3.09662106       2.98621965       0.62423841       47       0.04932642       0.04330698       0.01374423
O       -0.42625656       2.75924355       4.28180099       48       0.00567060      -0.06416592       0.01081704
O        1.04798334      -0.07585512       6.20237650       49      -0.03317373      -0.05508554      -0.01086416
O       -1.17294689      -0.80803189       6.28015861       50      -0.00324903      -0.06212887      -0.01994153
O        1.24638404       1.12493657       4.20401888       51      -0.02462104      -0.05716449       0.01989405
O       -3.30977150       4.34019353       0.96028775       52      -0.00567061       0.06416528      -0.01082184
O        4.33297486       0.07585512       9.52388974       53       0.03316802       0.05508608       0.01086686
O       -4.20801131       0.80803190       9.44610763       54       0.00324830       0.06213029       0.01994704
O        4.68288421       1.24154246       1.03806987       55       0.02462532       0.05716905      -0.01989774
