56
Lattice="10.7619164 0.0 0.0 -9.665296305262016 4.732958053065482 0.0 -0.5483100463354086 -2.3664790220718444 10.484177494289693" Properties=species:S:1:pos:R:3:spacegroup_kinds:I:1:forces:R:3 spacegroup="P 1" unit_cell=conventional occupancy="_JSON {\"0\": {\"H\": 1}, \"1\": {\"H\": 1}, \"2\": {\"H\": 1}, \"3\": {\"H\": 1}, \"4\": {\"H\": 1}, \"5\": {\"H\": 1}, \"6\": {\"H\": 1}, \"7\": {\"H\": 1}, \"8\": {\"H\": 1}, \"9\": {\"H\": 1}, \"10\": {\"H\": 1}, \"11\": {\"H\": 1}, \"12\": {\"H\": 1}, \"13\": {\"H\": 1}, \"14\": {\"H\": 1}, \"15\": {\"H\": 1}, \"16\": {\"H\": 1}, \"17\": {\"H\": 1}, \"18\": {\"H\": 1}, \"19\": {\"H\": 1}, \"20\": {\"H\": 1}, \"21\": {\"H\": 1}, \"22\": {\"H\": 1}, \"23\": {\"H\": 1}, \"24\": {\"H\": 1}, \"25\": {\"H\": 1}, \"26\": {\"H\": 1}, \"27\": {\"H\": 1}, \"28\": {\"H\": 1}, \"29\": {\"H\": 1}, \"30\": {\"H\": 1}, \"31\": {\"H\": 1}, \"32\": {\"C\": 1}, \"33\": {\"C\": 1}, \"34\": {\"C\": 1}, \"35\": {\"C\": 1}, \"36\": {\"C\": 1}, \"37\": {\"C\": 1}, \"38\": {\"C\": 1}, \"39\": {\"C\": 1}, \"40\": {\"C\": 1}, \"41\": {\"C\": 1}, \"42\": {\"C\": 1}, \"43\": {\"C\": 1}, \"44\": {\"C\": 1}, \"45\": {\"C\": 1}, \"46\": {\"C\": 1}, \"47\": {\"C\": 1}, \"48\": {\"O\": 1}, \"49\": {\"O\": 1}, \"50\": {\"O\": 1}, \"51\": {\"O\": 1}, \"52\": {\"O\": 1}, \"53\": {\"O\": 1}, \"54\": {\"O\": 1}, \"55\": {\"O\": 1}}" energy=-315.21038818359375 free_energy=-315.21038818359375 stress="0.001444607856683433 -0.0005629360093735158 7.941424229329641e-08 -0.0005629360093735158 -0.0008545862510800362 -4.721324842194008e-08 7.941424229329641e-08 -4.721324842194008e-08 0.0015756244538351893" pbc="T T T"
H       -0.01146673       2.27735377       1.83228363        0       0.05954280      -0.00327648       0.06233867
H        0.46354042      -0.32622645       8.65189388        1      -0.05491740       0.02317628      -0.06235576
H        7.11783645      -0.62125596       5.76730111        2       0.06303645      -0.00415138      -0.05874465
H        3.54784285       0.20590514       4.71687607        3      -0.05845450       0.02398688       0.05874059
H        5.94073500       0.08912526       3.40980511        4      -0.05953874       0.00327751      -0.06233706
H        4.91741780       0.32622654       7.07437241        5       0.05491447      -0.02316970       0.06236484
H       -1.73687825       0.62125613       9.95896513        6      -0.06303760       0.00415818       0.05874425
H        2.38142538       2.16057390       0.52521269        7       0.05845512      -0.02398801      -0.05874271
H       -1.38551754       1.18149074       2.11598469        8      -0.01114954       0.08954963       0.00594627
H       -8.44966009       2.81824228       8.36819218        9       0.04931327       0.07553662      -0.00592632
H       -2.58205883       2.70548917       6.85853646       10       0.02489199       0.08117923       0.03102931
H       -6.70482302       3.66072964       3.62563947       11       0.01337803       0.08383633      -0.03101419
H       -3.44713062       1.18498829       3.12610407       12       0.01115941      -0.08955144      -0.00594428
H       -6.59659445       1.91471577       7.35807408       13      -0.04930652      -0.07554595       0.00593422
H       -1.70227923       2.02746897       8.86772963       14      -0.02490166      -0.08118904      -0.03099558
H       -7.79312147       3.43870742       1.61644925       15      -0.01337414      -0.08383921       0.03100590
H       -0.77623955       0.71965044       4.36329758       16      -0.01323461      -0.01213565       0.02308625
H        1.56195590       2.67141835       6.12088029       17       0.00653415      -0.01672804      -0.02309595
H       -0.46326720       1.89389613       6.16073603       18       0.01919652      -0.01968105       0.01018725
H        0.70065483      -0.86930481       4.32344242       19      -0.02583088      -0.00920598      -0.01018385
H        6.70550784       1.64682867       0.87879113       20       0.01323280       0.01213493      -0.02308444
H       -5.84629404       2.06153966       9.60538593       21      -0.00653624       0.01672601       0.02309411
H        5.84422538      -1.89389611       9.56553025       22      -0.01918973       0.01966856      -0.01017744
H       -5.53330301       3.23578383       0.91864627       23       0.02584068       0.00921558       0.01018932
H        0.25118892       0.51320652       1.94904363       24      -0.01401029      -0.01703100      -0.02868475
H       -0.54820845      -1.79509607       8.53513266       25       0.00518267      -0.02145645       0.02868162
H       -2.80824660       2.46883415       5.11321221       26      -0.03240776      -0.01272123       0.00990959
H       -6.60574339       3.34870703       5.37096439       27       0.02347696      -0.02566511      -0.00992726
H       -5.08383701       1.85327246       3.29304511       28       0.01400372       0.01703835       0.02868901
H       -4.83274949       1.79509621       7.19113351       29      -0.00520929       0.02144499      -0.02866536
H       -0.92778153       4.63060279       0.12887636       30       0.03240959       0.01272194      -0.00991091
H        2.32140525       1.38425107      10.35530180       31      -0.02347620       0.02567160       0.00991879
C       -0.12855713       1.44666454       3.84724418       32      -0.06474330      -0.02297771       0.02711210
C        0.20337420      -1.12376648       6.63693319       33       0.04808229      -0.04911351      -0.02705875
C       -0.77313051       2.84277400       5.69386796       34       0.01803428      -0.04222555       0.05795792
C        1.39625479      -0.15339356       4.79030936       35      -0.03474280      -0.02990887      -0.05791870
C        6.05782528       0.91981441       1.39484461       36       0.06475909       0.02297495      -0.02710584
C       -5.58433220       1.12376665       9.08933300       37      -0.04809067       0.04911479       0.02707869
C       -3.51120741       1.89018400      10.03239814       38      -0.01806861       0.04223223      -0.05796685
C        4.53301349       2.51987247       0.45177956       39       0.03474694       0.02992389       0.05791063
C       -0.32629465       1.35816529       2.34320612       40       0.01376219       0.00373110      -0.01267769
C        0.34204070      -1.29021282       8.14097360       41      -0.01071790       0.00946850       0.01263557
C       -2.26788798       3.05478921       5.86652617       42      -0.01084346       0.00948879      -0.01263921
C        2.83194260      -0.62035933       4.61765398       43       0.01386537       0.00375882       0.01261284
C        6.25556281       1.00831378       2.89888264       44      -0.01376832      -0.00373895       0.01266706
C       -5.72299918       1.29021260       7.58529264       45       0.01074472      -0.00945127      -0.01267722
C       -2.01645025       1.67816877       9.85974052       46       0.01086627      -0.00948964       0.01260921
C        3.09732573       2.98683831       0.62443476       47      -0.01388457      -0.00375962      -0.01259647
O       -0.42617556       2.75832689       4.28195553       48      -0.00160925      -0.01560004      -0.00606876
O        1.04750942      -0.07664205       6.20222131       49      -0.00535272      -0.01474559       0.00606131
O       -1.17299329      -0.80891944       6.27987373       50      -0.00939932      -0.01381564      -0.00193615
O        1.24603231       1.12411994       4.20430308       51       0.00225556      -0.01656874       0.00193449
O       -3.30985252       4.34111019       0.96013316       52       0.00160978       0.01560122       0.00605898
O        4.33344870       0.07664207       9.52404499       53       0.00535030       0.01474193      -0.00606633
O       -4.20796492       0.80891948       9.44639257       54       0.00941752       0.01382495       0.00193541
O        4.68323598       1.24235916       1.03778562       55      -0.00226695       0.01654683      -0.00193195
