56
Lattice="10.7619164 0.0 0.0 -9.665296305262016 4.732958053065482 0.0 -0.5483100463354086 -2.3664790220718444 10.484177494289693" Properties=species:S:1:pos:R:3:spacegroup_kinds:I:1:momenta:R:3:forces:R:3 spacegroup="P 1" unit_cell=conventional occupancy="_JSON {\"0\": {\"H\": 1}, \"1\": {\"H\": 1}, \"2\": {\"H\": 1}, \"3\": {\"H\": 1}, \"4\": {\"H\": 1}, \"5\": {\"H\": 1}, \"6\": {\"H\": 1}, \"7\": {\"H\": 1}, \"8\": {\"H\": 1}, \"9\": {\"H\": 1}, \"10\": {\"H\": 1}, \"11\": {\"H\": 1}, \"12\": {\"H\": 1}, \"13\": {\"H\": 1}, \"14\": {\"H\": 1}, \"15\": {\"H\": 1}, \"16\": {\"H\": 1}, \"17\": {\"H\": 1}, \"18\": {\"H\": 1}, \"19\": {\"H\": 1}, \"20\": {\"H\": 1}, \"21\": {\"H\": 1}, \"22\": {\"H\": 1}, \"23\": {\"H\": 1}, \"24\": {\"H\": 1}, \"25\": {\"H\": 1}, \"26\": {\"H\": 1}, \"27\": {\"H\": 1}, \"28\": {\"H\": 1}, \"29\": {\"H\": 1}, \"30\": {\"H\": 1}, \"31\": {\"H\": 1}, \"32\": {\"C\": 1}, \"33\": {\"C\": 1}, \"34\": {\"C\": 1}, \"35\": {\"C\": 1}, \"36\": {\"C\": 1}, \"37\": {\"C\": 1}, \"38\": {\"C\": 1}, \"39\": {\"C\": 1}, \"40\": {\"C\": 1}, \"41\": {\"C\": 1}, \"42\": {\"C\": 1}, \"43\": {\"C\": 1}, \"44\": {\"C\": 1}, \"45\": {\"C\": 1}, \"46\": {\"C\": 1}, \"47\": {\"C\": 1}, \"48\": {\"O\": 1}, \"49\": {\"O\": 1}, \"50\": {\"O\": 1}, \"51\": {\"O\": 1}, \"52\": {\"O\": 1}, \"53\": {\"O\": 1}, \"54\": {\"O\": 1}, \"55\": {\"O\": 1}}" energy=-313.621826171875 free_energy=-313.621826171875 stress="-0.006905512884259224 -0.0013852991396561265 -0.0045046680606901646 -0.0013852991396561265 0.009439216926693916 0.005599946714937687 -0.0045046680606901646 0.005599946714937687 0.013407116755843163" pbc="T T T"
H        0.49738826       1.84331552       1.77824705        0      -0.10613549      -0.09781716       0.11564515      -0.18202232       0.31332439       0.59539682
H        0.10556105      -0.11663711       8.27653531        1       0.04015880      -0.13169744       0.14437796      -0.36897680      -0.78898370       0.22590907
H        6.62289166      -0.91207346       5.20265708        2      -0.16864241       0.10450199      -0.19163880       0.98594314      -0.03108574       0.77321959
H        3.36922873       0.56254879       5.08036125        3       0.12068327      -0.12390977       0.11663933      -0.39409375      -0.59535605      -0.23537524
H        5.95301333       0.59228804       3.38812119        4       0.14111260      -0.33747193      -0.07872023      -0.93093109      -0.50392240       0.87668461
H        5.01744029       0.42520644       7.32442010        5      -0.23162759       0.06489241      -0.14197816      -0.38864803      -1.26104879      -0.47847593
H       -1.57731801       0.54128669      10.53958408        6      -0.12407228      -0.08816787      -0.07763624      -0.37742734      -0.46800828       0.30721071
H        2.69863455       2.00433363       0.26116703        7      -0.05404248       0.01556929      -0.10226087      -0.72496235      -0.67534256      -0.86532021
H       -1.22303987       1.63673970       1.75940529        8      -0.05424861       0.24253115      -0.13897874      -0.49742037      -0.09367110       0.10530350
H       -8.93359085       2.96970986       8.47514825        9      -0.06041695      -0.12559743      -0.10761720       0.36621249      -0.63051772       0.55257761
H       -2.26849143       4.25936819       6.83350244       10       0.20578847       0.12214669       0.33238309      -0.06949822      -0.47618312      -0.34376985
H       -6.68836048       4.95609564       3.39407430       11      -0.06212228       0.10326007      -0.15892869       0.13253948      -0.56485832       0.15246023
H       -3.12925557       0.32645833       3.01954341       12       0.09286664       0.17897808      -0.00989610       0.31408736       0.11226156       0.01380323
H       -6.80751031       1.79512274       7.74588593       13       0.11313581      -0.05419595      -0.04504059      -2.35595655       0.59494895      -0.52510393
H       -1.67751185       0.97559877       8.80862516       14       0.00516107      -0.30016358      -0.16851692      -0.66053903       0.17536736       0.81923813
H       -7.85157865       2.25969168       2.02092888       15       0.06193658       0.16966408       0.04109258       0.45021543       0.30492926      -0.97372139
H       -1.03679273       0.54726114       4.10971788       16       0.09384648       0.18126169      -0.07858794       0.29054093       0.47455603       0.73893118
H        1.41496406       2.60741833       5.94194825       17       0.17914790       0.16208018      -0.08142811       0.04019792      -0.18982661       0.67822516
H       -0.64058312       2.00872421       6.06364867       18      -0.05634255       0.12337071       0.04032587      -0.53551906       0.51596785      -0.09276135
H        0.85977703      -0.92446421       4.06230097       19       0.08226601       0.01615491       0.13954061      -0.43777287      -0.05474465       0.42652640
H        7.07832341       1.52716378       0.77918377       20       0.03745864       0.06298849      -0.11847478      -0.51151693      -0.36470053      -0.19009674
H       -5.65481870       2.28567727       9.73114981       21       0.07723472       0.36926438      -0.07796220       0.09997201      -0.39056361       0.05156673
H        6.08095734      -2.02800090       9.57309426       22       0.04996147       0.13992240      -0.04251335       0.10451896      -0.44054848      -0.00564277
H       -5.39307810       3.26285525       1.28813573       23      -0.08191877      -0.05415605       0.26987039      -0.86359930      -0.75485909      -0.77635443
H       -0.07299379       0.27971727       1.81917029       24       0.13898014       0.34269607       0.14181201      -0.42564136      -0.34437755       0.62044728
H       -1.06699981      -1.51563979       8.21163907       25      -0.20145949       0.01373064       0.07616578      -0.17213516      -0.24385890       0.51165301
H       -2.96209944       2.60530153       6.43440167       26       0.06315729      -0.07174940      -0.16381574       0.16210663       0.09860078       0.31126013
H       -6.35720018       3.51669269       4.57538935       27       0.16449573       0.18568087       0.02440163      -0.60310316       1.40274239      -0.34498620
H       -3.82677242       2.00991141       3.18430521       28       0.08980614      -0.11710702      -0.00472141       0.23108810       0.02060212      -0.20068695
H       -5.17636475       2.03285256       7.19923461       29       0.10905359      -0.18779661       0.15105935      -0.36807552      -0.23564351       0.74253559
H       -0.79357725       4.53174568      -0.43569536       30      -0.12628164      -0.10201721      -0.01900734      -0.09978066       0.06217051       0.11299172
H        2.31575676       1.30675581      11.36317802       31       0.12164055       0.07458520      -0.08519268       0.08103807      -0.48911279      -0.09376782
C       -0.37163609       1.38708494       3.80590655       32       0.82677492       0.29513704       0.09766123       0.43049139      -0.84295571      -2.02712011
C        0.11847911      -1.18778284       6.49983780       33      -0.62840579      -0.18736549      -0.14628047      -0.37042028       0.27214366      -0.96541643
C       -0.97555883       2.96185318       5.57576504       34      -0.36449215      -1.07571302       0.20948542       0.37155297       0.17795609       0.59156835
C        1.35011582      -0.15700496       4.68315337       35      -0.02227646       0.95830936       0.13073187       0.73833752       1.50493968       0.40339103
C        6.36784104       0.86650848       1.33870124       36       0.30590311       0.88519362       1.28776743       1.97926223      -0.30296314       0.89317888
C       -5.53677835       1.29363403       9.24627699       37       0.27688646      -0.37684414       0.66636838      -0.66257668      -0.77058965       0.58602637
C       -3.39932673       1.69730076      10.02118773       38      -0.84111598      -0.44256831       0.59809749       0.37920579       0.54998630       0.65977025
C        4.71880450       2.50518184       0.70336296       39       0.38984610       0.88224356      -0.51305399      -0.59659672       1.44277191       0.49371448
C       -0.32683937       1.26219665       2.24609222       40      -0.63948326       0.50545877       0.23424418       0.77352536       0.79703093      -0.39456177
C       -0.05210471      -1.19852056       8.01058158       41       0.11582179      -0.65736445      -0.92748458       0.85173208       1.37445796      -1.02301121
C       -2.37909926       3.46525753       6.06278719       42      -0.05353614       0.08466719      -0.15003165      -0.40585232      -0.60535890      -1.67188144
C        2.83806346      -0.17358551       4.41939547       43       0.55230077       0.76816082      -0.43149706       1.06822407      -0.67907184       0.54367554
C        6.77902021       0.98017849       2.84378915       44      -1.12306978      -0.45028999       0.26640000      -0.51440406       0.02889958      -1.28143644
C       -5.86817688       1.36776529       7.79427931       45      -0.98979741      -0.05587598      -0.83441682       2.87888217       1.13956892      -0.55465001
C       -1.97699408       1.28319947       9.85895612       46       0.40697070      -0.18668023       0.33790908       1.72743058       0.51335877      -1.56748295
C        3.19008755       2.61285377       0.97606081       47       0.25747820       0.90121418      -0.18333200       1.07157493       1.22873163       1.82997894
O       -0.85758716       2.66103185       4.11713039       48       0.61684489      -0.37118733       1.25663792      -0.17584679       0.40346941       1.06924558
O        1.08909386      -0.23997542       6.12862841       49      -0.39618480      -0.37804618      -0.11483667       0.12260310      -0.37597740      -0.82797122
O       -1.16050468      -0.72093716       5.97406329       50      -0.34983762      -1.05740385      -0.27246593      -0.47367179      -0.41498235      -0.96765661
O        1.00795487       1.19208932       4.24044429       51      -0.03057034       0.15482437      -1.24559170      -1.03328013      -0.52625489       0.63128960
O       -3.10184436       4.20162625       0.97719069       52      -0.29226457       0.28802475      -0.94690451      -0.31202114       1.32850623      -0.04797688
O        4.30825705       0.33413965       9.75623660       53       0.02704260      -1.15722758      -0.33727083      -0.25940427       0.04012716       0.50475955
O       -4.24389647       0.74756655       9.49746223       54       0.41595413      -0.82784401       0.02625780       0.13963570       0.06729944      -0.42571640
O        5.02961358       1.21054930       1.07684139       55       0.87862906       0.61974489       1.29120796      -0.01922429      -0.82935154       0.05840524
