56
Lattice="10.7619164 0.0 0.0 -9.665296305262016 4.732958053065482 0.0 -0.5483100463354086 -2.3664790220718444 10.484177494289693" Properties=species:S:1:pos:R:3:spacegroup_kinds:I:1:momenta:R:3:forces:R:3 spacegroup="P 1" unit_cell=conventional occupancy="_JSON {\"0\": {\"H\": 1}, \"1\": {\"H\": 1}, \"2\": {\"H\": 1}, \"3\": {\"H\": 1}, \"4\": {\"H\": 1}, \"5\": {\"H\": 1}, \"6\": {\"H\": 1}, \"7\": {\"H\": 1}, \"8\": {\"H\": 1}, \"9\": {\"H\": 1}, \"10\": {\"H\": 1}, \"11\": {\"H\": 1}, \"12\": {\"H\": 1}, \"13\": {\"H\": 1}, \"14\": {\"H\": 1}, \"15\": {\"H\": 1}, \"16\": {\"H\": 1}, \"17\": {\"H\": 1}, \"18\": {\"H\": 1}, \"19\": {\"H\": 1}, \"20\": {\"H\": 1}, \"21\": {\"H\": 1}, \"22\": {\"H\": 1}, \"23\": {\"H\": 1}, \"24\": {\"H\": 1}, \"25\": {\"H\": 1}, \"26\": {\"H\": 1}, \"27\": {\"H\": 1}, \"28\": {\"H\": 1}, \"29\": {\"H\": 1}, \"30\": {\"H\": 1}, \"31\": {\"H\": 1}, \"32\": {\"C\": 1}, \"33\": {\"C\": 1}, \"34\": {\"C\": 1}, \"35\": {\"C\": 1}, \"36\": {\"C\": 1}, \"37\": {\"C\": 1}, \"38\": {\"C\": 1}, \"39\": {\"C\": 1}, \"40\": {\"C\": 1}, \"41\": {\"C\": 1}, \"42\": {\"C\": 1}, \"43\": {\"C\": 1}, \"44\": {\"C\": 1}, \"45\": {\"C\": 1}, \"46\": {\"C\": 1}, \"47\": {\"C\": 1}, \"48\": {\"O\": 1}, \"49\": {\"O\": 1}, \"50\": {\"O\": 1}, \"51\": {\"O\": 1}, \"52\": {\"O\": 1}, \"53\": {\"O\": 1}, \"54\": {\"O\": 1}, \"55\": {\"O\": 1}}" energy=-315.20623779296875 free_energy=-315.20623779296875 stress="0.001525980420410633 -0.0007349665393121541 -5.870961672371777e-07 -0.0007349665393121541 -0.0014768142718821764 6.194645862933612e-08 -5.870961672371777e-07 6.194645862933612e-08 0.0016979745123535395" pbc="T T T"
H       -0.01248427       2.27696696       1.83153339        0       0.26354636       0.05758816       0.17128558       0.07122724       0.02707732       0.05251653
H        0.46428407      -0.32702137       8.65264411        1       0.35723632       0.30052336      -0.15421514      -0.05205586       0.05564444      -0.05251553
H        7.11696904      -0.62167877       5.76820574        2       0.13651140      -0.03657588      -0.02448058       0.06071789       0.02959672      -0.06332502
H        3.54843712       0.20514534       4.71597175        3       0.04495575       0.01373704       0.24194406      -0.04159866       0.05318656       0.06330242
H        5.94175252       0.08951207       3.41055536        4       0.10004105       0.00919574       0.06893732      -0.07122677      -0.02707718      -0.05251773
H        4.91667413       0.32702137       7.07362213        5       0.03762731       0.23702154      -0.03633186       0.05205708      -0.05563802       0.05251906
H       -1.73601084       0.62167878       9.95806050        6       0.04090260      -0.15000140      -0.41043770      -0.06071937      -0.02958637       0.06332457
H        2.38083113       2.16133369       0.52611700        7       0.07639930       0.13373956      -0.11953039       0.04159776      -0.05318586      -0.06330105
H       -1.38564785       1.18011340       2.11584331        8       0.34764813      -0.24942510       0.01968671       0.00912169       0.09641392       0.00989596
H       -8.45014457       2.81694541       8.36833418        9      -0.04487542       0.24826795       0.27191556       0.03391346       0.09078100      -0.00994005
H       -2.58250803       2.70418269       6.85836100       10       0.00836639       0.05472545      -0.13232917       0.03144357       0.09145395       0.01228199
H       -6.70499477       3.65935988       3.62581649       11      -0.35280026      -0.06406840       0.05024236       0.01202247       0.09588278      -0.01239179
H       -3.44700030       1.18636563       3.12624543       12       0.17759995       0.19181929      -0.04741865      -0.00912229      -0.09641425      -0.00989479
H       -6.59610993       1.91601265       7.35793206       13      -0.06659844      -0.18039638      -0.21144164      -0.03391564      -0.09078155       0.00994135
H       -1.70183007       2.02877537       8.86790524       14      -0.29590695       0.31510437      -0.07166042      -0.03144011      -0.09144850      -0.01229318
H       -7.79294969       3.44007720       1.61627226       15      -0.10166361      -0.21365327       0.15571300      -0.01202473      -0.09588427       0.01239011
H       -0.77544238       0.72057867       4.36236141       16      -0.29135246      -0.04383699      -0.13778795      -0.05580214      -0.06497548       0.06553137
H        1.56164860       2.67260202       6.12181608       17       0.04513471      -0.09416448      -0.19034861       0.02151146      -0.08285741      -0.06550550
H       -0.46393564       1.89516633       6.16016720       18      -0.02388752       0.06229365       0.02104621       0.04679095      -0.08891343       0.03981832
H        0.70181139      -0.86845994       4.32401029       19       0.02574107      -0.11427781      -0.05287528      -0.08095933      -0.05914050      -0.03975126
H        6.70471062       1.64590036       0.87972733       20      -0.14286290      -0.07079985      -0.14118650       0.05580505       0.06498130      -0.06553411
H       -5.84598670       2.06035604       9.60445016       21      -0.29753233       0.02254640      -0.04431235      -0.02151349       0.08285321       0.06550386
H        5.84489385      -1.89516633       9.56609904       22      -0.28312851       0.06560536      -0.15494221      -0.04679305       0.08891501      -0.03981542
H       -5.53445954       3.23493897       0.91807845       23      -0.02208037       0.11416853       0.04301970       0.08095732       0.05914053       0.03974689
H        0.25131050       0.51347389       1.94957474       24       0.15959789      -0.21361364       0.07505588      -0.00851037      -0.01871546      -0.03717756
H       -0.54820374      -1.79480395       8.53460275       25      -0.12868866      -0.15316038      -0.08588331      -0.00032964      -0.02044777       0.03709342
H       -2.80766320       2.46899490       5.11315433       26      -0.07305533       0.00146869      -0.17781296      -0.04083795      -0.01125228       0.00405173
H       -6.60619587       3.34910738       5.37102316       27       0.12888264       0.07074453      -0.23064715       0.03167380      -0.02802435      -0.00411385
H       -5.08395866       1.85300514       3.29251401       28       0.22099581       0.30740365       0.21601993       0.00851496       0.01871228       0.03717755
H       -4.83275446       1.79480396       7.19166349       29      -0.04673026      -0.18471461       0.19482948       0.00034677       0.02045767      -0.03709839
H       -0.92836486       4.63044218       0.12893441       30      -0.09883902       0.19431951       0.04569436       0.04083271       0.01124366      -0.00406383
H        2.32185777       1.38385068      10.35524308       31       0.15211596       0.04921952       0.12080102      -0.03167615       0.02802778       0.00411034
C       -0.12835063       1.44534837       3.84841655       32      -0.28778073       0.91754073       0.18270710      -0.01445562       0.09213260      -0.08206746
C        0.20260826      -1.12485611       6.63576095       33       0.00096406       0.97078231      -0.67128192       0.05361496       0.07627293       0.08205763
C       -0.77226604       2.84130358       5.69336968       34      -0.96473690       0.45234422      -0.54337998      -0.06051248       0.10292913       0.03487879
C        1.39483372      -0.15433229       4.79080781       35       0.83737779      -0.34833687      -0.35976593       0.09947553       0.06571034      -0.03489336
C        6.05761888       0.92113066       1.39367220       36       0.73780001       0.71679960       1.01054651       0.01444741      -0.09213796       0.08206892
C       -5.58356646       1.12485611       9.09050530       37       0.36600935      -0.57579551       1.35161317      -0.05360165      -0.07626240      -0.08206046
C       -3.51207206       1.89165448      10.03289656       38      -0.27702103       0.36712178       0.74445208       0.06052592      -0.10293398      -0.03488949
C        4.53443453       2.52081132       0.45128094       39      -0.47025582       0.22782501       0.51146167      -0.09947166      -0.06572023       0.03490336
C       -0.32593927       1.35886302       2.34265801       40      -0.11966996      -0.73251108       0.28611321      -0.02487613      -0.04884198       0.03836653
C        0.34202778      -1.28942579       8.14151949       41       0.57030904      -0.50578053       0.01064034       0.00090463      -0.05509117      -0.03821050
C       -2.26824862       3.05565688       5.86632716       42      -0.48098077       0.96238649       0.55365818       0.02524385      -0.06073710       0.01393124
C        2.83264719      -0.61974062       4.61785033       43      -0.04860277      -0.55844948       0.33742963      -0.04931970      -0.04330906      -0.01374397
C        6.25520752       1.00761601       2.89943074       44      -0.70747446      -0.11378709      -0.42767829       0.02487145       0.04884404      -0.03836703
C       -5.72298598       1.28942580       7.58474676       45       0.19434055       0.24831833       0.14297097      -0.00092428       0.05507705       0.03821242
C       -2.01608948       1.67730118       9.85993908       46       0.09740524      -0.72425149      -0.69205550      -0.02525468       0.06073117      -0.01389905
C        3.09662106       2.98621965       0.62423841       47      -0.12331172      -0.02208015       0.38636924       0.04932779       0.04330507       0.01374359
O       -0.42625656       2.75924355       4.28180099       48       1.20625674       0.48604619      -0.44497158       0.00567055      -0.06416623       0.01081717
O        1.04798334      -0.07585512       6.20237650       49       0.42305791      -1.01659881      -0.20166176      -0.03317462      -0.05508602      -0.01086301
O       -1.17294689      -0.80803189       6.28015861       50      -0.36133290       0.99731317      -0.30860065      -0.00324833      -0.06212848      -0.01994129
O        1.24638404       1.12493657       4.20401888       51      -0.92624698      -0.21254257      -0.34164539      -0.02462107      -0.05716409       0.01989354
O       -3.30977150       4.34019353       0.96028775       52       0.26500009      -0.83301049      -0.49473951      -0.00567148       0.06416555      -0.01082096
O        4.33297486       0.07585512       9.52388974       53      -0.48283211      -0.49689578       1.25894465       0.03316910       0.05508587       0.01086843
O       -4.20801131       0.80803190       9.44610763       54       0.43498781      -0.06064940      -0.51538975       0.00324726       0.06213032       0.01994681
O        4.68288421       1.24154246       1.03806987       55       0.06343698      -0.82659266      -1.04828579       0.02462458       0.05716878      -0.01989813
56
Lattice="10.7619164 0.0 0.0 -9.665296305262016 4.732958053065482 0.0 -0.5483100463354086 -2.3664790220718444 10.484177494289693" Properties=species:S:1:pos:R:3:spacegroup_kinds:I:1:momenta:R:3:forces:R:3 spacegroup="P 1" unit_cell=conventional occupancy="_JSON {\"0\": {\"H\": 1}, \"1\": {\"H\": 1}, \"2\": {\"H\": 1}, \"3\": {\"H\": 1}, \"4\": {\"H\": 1}, \"5\": {\"H\": 1}, \"6\": {\"H\": 1}, \"7\": {\"H\": 1}, \"8\": {\"H\": 1}, \"9\": {\"H\": 1}, \"10\": {\"H\": 1}, \"11\": {\"H\": 1}, \"12\": {\"H\": 1}, \"13\": {\"H\": 1}, \"14\": {\"H\": 1}, \"15\": {\"H\": 1}, \"16\": {\"H\": 1}, \"17\": {\"H\": 1}, \"18\": {\"H\": 1}, \"19\": {\"H\": 1}, \"20\": {\"H\": 1}, \"21\": {\"H\": 1}, \"22\": {\"H\": 1}, \"23\": {\"H\": 1}, \"24\": {\"H\": 1}, \"25\": {\"H\": 1}, \"26\": {\"H\": 1}, \"27\": {\"H\": 1}, \"28\": {\"H\": 1}, \"29\": {\"H\": 1}, \"30\": {\"H\": 1}, \"31\": {\"H\": 1}, \"32\": {\"C\": 1}, \"33\": {\"C\": 1}, \"34\": {\"C\": 1}, \"35\": {\"C\": 1}, \"36\": {\"C\": 1}, \"37\": {\"C\": 1}, \"38\": {\"C\": 1}, \"39\": {\"C\": 1}, \"40\": {\"C\": 1}, \"41\": {\"C\": 1}, \"42\": {\"C\": 1}, \"43\": {\"C\": 1}, \"44\": {\"C\": 1}, \"45\": {\"C\": 1}, \"46\": {\"C\": 1}, \"47\": {\"C\": 1}, \"48\": {\"O\": 1}, \"49\": {\"O\": 1}, \"50\": {\"O\": 1}, \"51\": {\"O\": 1}, \"52\": {\"O\": 1}, \"53\": {\"O\": 1}, \"54\": {\"O\": 1}, \"55\": {\"O\": 1}}" energy=-314.163330078125 free_energy=-314.163330078125 stress="0.0017965392908081412 -0.0062950365245342255 0.004064945038408041 -0.0062950365245342255 0.0028975571040064096 0.0068001593463122845 0.004064945038408041 0.0068001593463122845 -0.004473624750971794" pbc="T T T"
H        0.12223868       2.21335576       1.84744822        0      -0.06388218      -0.04107987      -0.23331093      -0.34890723      -0.46718040       0.26391745
H        0.31702072      -0.21474884       8.50409134        1      -0.41596673       0.28241724       0.13417967       0.19316705      -0.82259095      -0.04442125
H        7.16689576      -0.52337014       5.79422142        2      -0.01099347       0.09115197       0.18553093      -0.25331429       0.53084213      -0.08150233
H        3.56769344       0.19128017       4.81695801        3       0.00635042       0.03106399      -0.05661325      -0.45246866      -0.59983253       0.03513633
H        5.89857389       0.12906192       3.45590346        4      -0.13662981       0.06346629       0.07412521      -0.11012716      -0.04154639      -0.10463312
H        5.01440548       0.32414383       7.14335940        5       0.11996960      -0.01313411       0.16304588      -0.17231193      -0.44180542      -0.12289607
H       -1.69404176       0.62953429       9.70230153        6      -0.06773566       0.00953595      -0.07983932      -0.29939494      -0.31746262       0.05525905
H        2.37945905       2.25462947       0.31380996        7      -0.10899684       0.12801566      -0.23887812      -0.36571071      -0.41984612      -0.02494883
H       -1.28062217       1.09681356       2.00394188        8       0.10394065       0.17626280      -0.14567626      -0.56132352      -0.12197542      -0.18949677
H       -8.36548934       3.00985767       8.44664945        9       0.01874350       0.07750829      -0.14054400       0.39232033      -0.31946707      -0.01170144
H       -2.54664929       2.78893570       6.82205309       10       0.03048604       0.25775600      -0.04488790      -0.41237301      -0.20837793       1.19028485
H       -6.74143409       3.80633209       3.57290632       11       0.32050268       0.15943875       0.02898749       0.31104091       0.03237025       0.37734854
H       -3.41360532       1.09458058       3.05616294       12       0.34318409      -0.23802469       0.07743269      -0.50854027       0.08234575       0.33156043
H       -6.59466944       1.88031612       7.31880474       13       0.01536670       0.03548301       0.08656127      -0.08189642      -0.12137217       0.20796514
H       -1.92963185       2.16013649       8.81427837       14       0.12531100      -0.02323608      -0.06973087       0.40313810      -0.12264621      -0.32056481
H       -7.86690876       3.29972358       1.71696126       15      -0.08477309      -0.03159827       0.12293892      -0.01434054      -0.41004378      -0.77136469
H       -0.90235496       0.77646747       4.33988646       16      -0.08686007      -0.05814805       0.28342579       0.40912649       0.11714901       0.19912119
H        1.57326848       2.69585851       6.02312951       17       0.00715130      -0.12380877      -0.16254808      -0.29899231      -0.23122935       0.25480619
H       -0.61632288       1.91476305       6.12879314       18      -0.08876026       0.01924312      -0.05101219       0.36619568      -0.32495475       0.18464833
H        0.76835888      -0.91704687       4.28843426       19      -0.15605123       0.01894776       0.06988656      -0.03238246       0.22899759       0.08527471
H        6.70609327       1.62092021       0.91686458       20       0.01929231      -0.19191472       0.26163575       0.76997519       0.63578379      -0.47934961
H       -5.82009071       2.01052698       9.75507005       21       0.30326585       0.03656560       0.14022285      -0.00922979      -0.03740705      -0.50983739
H        5.81093419      -1.87039269       9.61285219       22       0.20657583       0.20659837      -0.02039179       0.37428179      -0.52969092       0.33497891
H       -5.59543449       3.24736135       1.04015515       23      -0.04224124      -0.11354966       0.21265903       0.13948427      -0.29077283      -0.10894274
H        0.42784601       0.48710592       2.10176742       24       0.30049784      -0.13610998      -0.00468398      -0.59484422       0.09816383      -0.19185129
H       -0.53518872      -1.77813124       8.52127420       25       0.00655584       0.08690847       0.10595485       0.65831965      -0.06782471      -0.13440669
H       -2.96285665       2.59157644       5.13270580       26      -0.25300674       0.03340913       0.06572308       0.52107191       0.35914665       0.31286675
H       -6.55716737       3.24215839       5.23786854       27      -0.16752534      -0.02805310      -0.10766351       0.03742109      -0.88643539       0.79596221
H       -5.03685281       1.93128234       3.36334315       28      -0.15021108       0.12582490      -0.10191910       0.62859285      -0.83863771      -0.54655647
H       -4.85344603       1.77016488       7.27072606       29      -0.06649169       0.16884070       0.01181305       1.25072932       0.88673377      -0.39224690
H       -0.86175598       4.56432671       0.03964650       30       0.17846394      -0.19144312      -0.07943179      -0.39175671      -0.36752036      -0.55813015
H        2.38301371       1.54051134      10.51636405       31      -0.19060827       0.01911239       0.25222984       0.14690952      -0.16933605       0.11266029
C       -0.17581895       1.46226535       3.84974165       32      -0.18515639      -0.57459532      -0.22058225       0.27883258      -0.44003791       0.08530736
C        0.22192600      -1.12504879       6.58997345       33      -0.07512311      -0.46550121       0.08488178      -0.55275488      -0.80494654       0.23250553
C       -0.84336858       2.87265024       5.66245298       34       0.04319835       0.29158532      -0.23378186       1.13017857       0.50399065      -0.24388552
C        1.43229076      -0.18392811       4.79404745       35      -0.39846595      -0.16641831      -0.07506721      -1.39262676       0.15177596      -0.49470645
C        6.06713487       0.93900034       1.43224268       36      -0.39497160      -0.32073257      -0.80955242      -1.35844111      -1.50483632      -0.67591286
C       -5.58329451       1.10380715       9.15771829       37      -0.36193216      -0.01752060       0.07000822      -0.01275846       0.62094873      -0.17375669
C       -3.52181740       1.89477510      10.09402551       38       0.16177584      -0.52863267       0.28467005       0.13258365       0.16549140      -2.07575536
C        4.51640583       2.52102928       0.51005713       39       0.36138330      -0.43527663       0.58505071       0.14679205       0.12096181       0.07939643
C       -0.28405293       1.30051714       2.35611375       40       0.19195182      -0.55821595       0.03644877       1.44869792       0.72397542      -0.52214062
C        0.37449210      -1.27541846       8.11748205       41       0.14753523       0.49373648      -0.46888056      -1.73078179       1.54831302      -0.36516762
C       -2.30636824       3.14844779       5.85186587       42      -0.25949168       1.26103873      -0.54787152      -0.30482835      -0.37169468      -1.63763237
C        2.84200269      -0.65064888       4.64737901       43       0.56034542      -0.10141631      -0.32885504       0.85266125       1.99939466      -1.91113806
C        6.24443651       1.02088159       2.92126916       44       0.40080512      -0.06552254       0.31202202       0.30223814       0.54350758       0.34550408
C       -5.72072981       1.29321541       7.63361804       45      -0.11247018      -0.13664558       1.05760879      -1.14459908      -0.53769761       0.96596050
C       -2.05012738       1.65516313       9.77267023       46      -0.47453617       0.69520785      -0.54057379       0.62451804       1.48065209       1.00712383
C        3.08351632       3.00246315       0.64822751       47      -0.01605107       0.11556259       0.01380971       0.20967543       0.51371562       0.80870551
O       -0.35411231       2.78763683       4.26978768       48       0.22350740       0.25056265       0.25663327      -1.10039926       0.01685548       0.20638214
O        1.06167983      -0.11984226       6.16496941       49      -0.16821881      -0.55392466      -0.45958727       0.11151871       0.85498452       0.49101231
O       -1.21357942      -0.78977938       6.25156088       50      -0.33543374      -0.44277460      -0.25066827       0.73390532      -0.39541584       0.41342127
O        1.20697420       1.13024276       4.19342496       51       0.17004618       0.12777118       0.14454278       0.59316105      -1.04898441       0.70126808
O       -3.31489246       4.29054000       0.93958224       52      -0.41183559      -0.17658513       0.40053917      -0.10514004       0.93135333       2.17608714
O        4.33821577       0.06296653       9.62059752       53       0.35992276       0.45633094       0.21462759       0.43338281       0.52332401      -1.13898230
O       -4.17202259       0.83010247       9.41381798       54       0.02043453       0.24051364      -0.02777883      -0.78839660      -0.43915889       0.27765542
O        4.70668948       1.20000077       0.96656717       55       0.53785639      -0.22599726      -0.23686564      -0.20127994       0.02995161       1.29980826
56
Lattice="10.7619164 0.0 0.0 -9.665296305262016 4.732958053065482 0.0 -0.5483100463354086 -2.3664790220718444 10.484177494289693" Properties=species:S:1:pos:R:3:spacegroup_kinds:I:1:momenta:R:3:forces:R:3 spacegroup="P 1" unit_cell=conventional occupancy="_JSON {\"0\": {\"H\": 1}, \"1\": {\"H\": 1}, \"2\": {\"H\": 1}, \"3\": {\"H\": 1}, \"4\": {\"H\": 1}, \"5\": {\"H\": 1}, \"6\": {\"H\": 1}, \"7\": {\"H\": 1}, \"8\": {\"H\": 1}, \"9\": {\"H\": 1}, \"10\": {\"H\": 1}, \"11\": {\"H\": 1}, \"12\": {\"H\": 1}, \"13\": {\"H\": 1}, \"14\": {\"H\": 1}, \"15\": {\"H\": 1}, \"16\": {\"H\": 1}, \"17\": {\"H\": 1}, \"18\": {\"H\": 1}, \"19\": {\"H\": 1}, \"20\": {\"H\": 1}, \"21\": {\"H\": 1}, \"22\": {\"H\": 1}, \"23\": {\"H\": 1}, \"24\": {\"H\": 1}, \"25\": {\"H\": 1}, \"26\": {\"H\": 1}, \"27\": {\"H\": 1}, \"28\": {\"H\": 1}, \"29\": {\"H\": 1}, \"30\": {\"H\": 1}, \"31\": {\"H\": 1}, \"32\": {\"C\": 1}, \"33\": {\"C\": 1}, \"34\": {\"C\": 1}, \"35\": {\"C\": 1}, \"36\": {\"C\": 1}, \"37\": {\"C\": 1}, \"38\": {\"C\": 1}, \"39\": {\"C\": 1}, \"40\": {\"C\": 1}, \"41\": {\"C\": 1}, \"42\": {\"C\": 1}, \"43\": {\"C\": 1}, \"44\": {\"C\": 1}, \"45\": {\"C\": 1}, \"46\": {\"C\": 1}, \"47\": {\"C\": 1}, \"48\": {\"O\": 1}, \"49\": {\"O\": 1}, \"50\": {\"O\": 1}, \"51\": {\"O\": 1}, \"52\": {\"O\": 1}, \"53\": {\"O\": 1}, \"54\": {\"O\": 1}, \"55\": {\"O\": 1}}" energy=-313.85382080078125 free_energy=-313.85382080078125 stress="0.013761395588517189 -0.00487941037863493 -0.005674298387020826 -0.00487941037863493 0.006163791753351688 0.005476027261465788 -0.005674298387020826 0.005476027261465788 -0.001812920905649662" pbc="T T T"
H        0.15152023       2.21865811       1.86996604        0       0.18670816      -0.17536460       0.06887297      -0.25462985      -0.83075523       0.05804871
H        0.10920507      -0.19334258       8.62244502        1      -0.00897870       0.26460637      -0.03107078       0.20135956      -1.45994473      -1.01799428
H        7.15516443      -0.39883636       5.76710617        2       0.22383280       0.15937019      -0.34067689       0.18644458       0.19728211      -0.26340324
H        3.55287375       0.14212045       5.10648274        3      -0.16824459      -0.25377480       0.22539345      -0.53552699      -0.32389876      -0.69896102
H        5.71904790       0.28007957       3.48878622        4      -0.14175116       0.06957627       0.07981289      -0.42629534      -0.45673651       0.12704720
H        5.07217449       0.33732690       7.23278693        5      -0.02221072       0.07819992       0.03358501       0.14585060      -0.33883467      -0.34743729
H       -1.86337468       0.61454898       9.70908646        6       0.00209980      -0.06951357       0.02682873       0.35397431       0.27211973       0.03442099
H        2.40409150       2.23500116       0.27412501        7      -0.05904491      -0.08227827      -0.03197377       0.20295456       0.43274078      -0.32657039
H       -1.27779540       1.10993532       2.00836784        8      -0.09536151      -0.13044326       0.02708151      -0.83864760       0.04003192      -0.43664849
H       -8.33962617       3.21420949       8.35225613        9       0.17273740       0.29406253      -0.08361766       0.23368250       0.22765569      -0.09218138
H       -2.54133521       3.01261327       6.85842854       10       0.10491074       0.07367809       0.12018019      -0.11240868      -0.33224234       0.81576574
H       -6.39093374       3.84895152       3.60576963       11       0.14443675       0.00657632      -0.00789902      -0.26306587       0.31059268      -0.29988918
H       -3.37778183       0.94136153       3.24468009       12       0.01522074      -0.07500931       0.19342030      -1.33400726      -0.10755365      -0.76893288
H       -6.68609547       1.78694173       7.51153385       13      -0.08667861      -0.27258680      -0.01170156      -0.20095353      -0.13165000      -0.15521619
H       -1.76453233       2.05976714       8.70170595       14       0.02189854      -0.10309618       0.09738862      -0.31269518       0.19350237       0.31044066
H       -7.95446004       3.02340543       1.79564981       15      -0.04973572      -0.11226843       0.02076902       0.41189519       0.38057715      -1.18562245
H       -0.80018674       0.77039116       4.49092960       16       0.00831355      -0.06072615      -0.00660596       0.00097096       0.17438842      -0.99411488
H        1.44500774       2.50713077       6.17382268       17       0.01225003      -0.28997313      -0.01209765       0.24866429       1.14403522       0.13491383
H       -0.56090748       1.92546787       6.04306254       18       0.00912419       0.02953096      -0.02229004      -0.35387298      -0.16754109       0.13082588
H        0.67939893      -0.89355046       4.27079633       19       0.07644921      -0.05095161      -0.04691383       0.30057663      -0.10529435      -0.07734939
H        6.74714446       1.49845917       0.85340925       20      -0.11245910      -0.08927526      -0.22056996       0.51640970       1.18712187      -0.49471092
H       -5.80988206       2.10952426       9.71365884       21      -0.20491577       0.06817206      -0.10894806       0.02467372      -0.34779429      -0.22419149
H        5.87596097      -1.83571094       9.70363722       22      -0.16164996       0.07076745       0.03590444      -0.15178885      -0.88951635      -0.00086580
H       -5.50015871       3.11440200       1.13784153       23       0.11933160       0.03126404      -0.00442113      -0.11865056       0.35620734      -0.32354990
H        0.36855196       0.33657772       1.99417357       24      -0.04607097      -0.23447362      -0.15432091      -1.04204047       1.71019292       0.43702242
H       -0.32413896      -2.00709547       8.53026250       25       0.20339029      -0.17844317      -0.18322134       0.05246630       0.67889309      -0.27905449
H       -3.08714243       2.74677629       5.19721873       26      -0.01915482       0.07455436      -0.09249908       0.58998251       0.03474032       0.12558144
H       -6.69673477       3.25872589       5.21696387       27      -0.09696541      -0.06688897      -0.04755614       0.17544243      -1.07491946       0.50441206
H       -4.83143350       2.04721349       3.16449862       28       0.33766993       0.12941221       0.00705000       0.39477825      -1.34767127      -0.01897210
H       -4.93754011       1.99042846       7.37634373       29       0.05869110       0.23203855       0.01089259      -0.29873925      -0.47476661      -0.05642337
H       -0.81005394       4.51876359       0.00822827       30      -0.20155765       0.23295219      -0.03457195      -0.26691583      -0.02006728      -0.48482299
H        2.48120436       1.62674250      10.66760483       31       0.30393417      -0.01816201       0.05312329      -0.25146714      -0.60052049       0.38425088
C       -0.17497677       1.41202889       3.81608588       32       0.11041236      -0.26316047      -0.10980160       0.95673209       0.41550329       1.33581245
C        0.16861399      -1.18805864       6.60335743       33      -0.76776838       0.02199966       0.67403893      -0.22194053       0.09041028      -0.69300318
C       -0.81165542       2.89924229       5.59186427       34      -0.05282379       0.32732926      -0.63230667      -1.19238031      -0.34073457       0.60169411
C        1.38527142      -0.18167028       4.74198783       35       0.10269921       0.21879173      -0.68694691       0.81694585      -0.55122960      -0.59415829
C        6.06620574       0.86818198       1.37965231       36       0.53230834      -0.54626196       0.08532766      -0.00823262      -0.53997242       1.85034323
C       -5.59710014       1.15461057       9.17270548       37       0.05871118       1.06856447       0.55336547       0.70455003       0.84735548       1.79724765
C       -3.48648165       1.86752578      10.06803995       38       0.30032481       0.37939310      -0.58623057      -0.95997137       1.52576780      -0.53065825