56
Lattice="10.7619164 0.0 0.0 -9.665296305262016 4.732958053065482 0.0 -0.5483100463354086 -2.3664790220718444 10.484177494289693" Properties=species:S:1:pos:R:3:spacegroup_kinds:I:1:forces:R:3 spacegroup="P 1" unit_cell=conventional occupancy="_JSON {\"0\": {\"H\": 1}, \"1\": {\"H\": 1}, \"2\": {\"H\": 1}, \"3\": {\"H\": 1}, \"4\": {\"H\": 1}, \"5\": {\"H\": 1}, \"6\": {\"H\": 1}, \"7\": {\"H\": 1}, \"8\": {\"H\": 1}, \"9\": {\"H\": 1}, \"10\": {\"H\": 1}, \"11\": {\"H\": 1}, \"12\": {\"H\": 1}, \"13\": {\"H\": 1}, \"14\": {\"H\": 1}, \"15\": {\"H\": 1}, \"16\": {\"H\": 1}, \"17\": {\"H\": 1}, \"18\": {\"H\": 1}, \"19\": {\"H\": 1}, \"20\": {\"H\": 1}, \"21\": {\"H\": 1}, \"22\": {\"H\": 1}, \"23\": {\"H\": 1}, \"24\": {\"H\": 1}, \"25\": {\"H\": 1}, \"26\": {\"H\": 1}, \"27\": {\"H\": 1}, \"28\": {\"H\": 1}, \"29\": {\"H\": 1}, \"30\": {\"H\": 1}, \"31\": {\"H\": 1}, \"32\": {\"C\": 1}, \"33\": {\"C\": 1}, \"34\": {\"C\": 1}, \"35\": {\"C\": 1}, \"36\": {\"C\": 1}, \"37\": {\"C\": 1}, \"38\": {\"C\": 1}, \"39\": {\"C\": 1}, \"40\": {\"C\": 1}, \"41\": {\"C\": 1}, \"42\": {\"C\": 1}, \"43\": {\"C\": 1}, \"44\": {\"C\": 1}, \"45\": {\"C\": 1}, \"46\": {\"C\": 1}, \"47\": {\"C\": 1}, \"48\": {\"O\": 1}, \"49\": {\"O\": 1}, \"50\": {\"O\": 1}, \"51\": {\"O\": 1}, \"52\": {\"O\": 1}, \"53\": {\"O\": 1}, \"54\": {\"O\": 1}, \"55\": {\"O\": 1}}" energy=-315.20623779296875 free_energy=-315.20623779296875 stress="0.001525980420410633 -0.0007349665393121541 -5.870961672371777e-07 -0.0007349665393121541 -0.0014768142718821764 6.194645862933612e-08 -5.870961672371777e-07 6.194645862933612e-08 0.0016979745123535395" pbc="T T T"
H       -0.01248427       2.27696696       1.83153339        0       0.07122724       0.02707732       0.05251653
H        0.46428407      -0.32702137       8.65264411        1      -0.05205586       0.05564444      -0.05251553
H        7.11696904      -0.62167877       5.76820574        2       0.06071789       0.02959672      -0.06332502
H        3.54843712       0.20514534       4.71597175        3      -0.04159866       0.05318656       0.06330242
H        5.94175252       0.08951207       3.41055536        4      -0.07122677      -0.02707718      -0.05251773
H        4.91667413       0.32702137       7.07362213        5       0.05205708      -0.05563802       0.05251906
H       -1.73601084       0.62167878       9.95806050        6      -0.06071937      -0.02958637       0.06332457
H        2.38083113       2.16133369       0.52611700        7       0.04159776      -0.05318586      -0.06330105
H       -1.38564785       1.18011340       2.11584331        8       0.00912169       0.09641392       0.00989596
H       -8.45014457       2.81694541       8.36833418        9       0.03391346       0.09078100      -0.00994005
H       -2.58250803       2.70418269       6.85836100       10       0.03144357       0.09145395       0.01228199
H       -6.70499477       3.65935988       3.62581649       11       0.01202247       0.09588278      -0.01239179
H       -3.44700030       1.18636563       3.12624543       12      -0.00912229      -0.09641425      -0.00989479
H       -6.59610993       1.91601265       7.35793206       13      -0.03391564      -0.09078155       0.00994135
H       -1.70183007       2.02877537       8.86790524       14      -0.03144011      -0.09144850      -0.01229318
H       -7.79294969       3.44007720       1.61627226       15      -0.01202473      -0.09588427       0.01239011
H       -0.77544238       0.72057867       4.36236141       16      -0.05580214      -0.06497548       0.06553137
H        1.56164860       2.67260202       6.12181608       17       0.02151146      -0.08285741      -0.06550550
H       -0.46393564       1.89516633       6.16016720       18       0.04679095      -0.08891343       0.03981832
H        0.70181139      -0.86845994       4.32401029       19      -0.08095933      -0.05914050      -0.03975126
H        6.70471062       1.64590036       0.87972733       20       0.05580505       0.06498130      -0.06553411
H       -5.84598670       2.06035604       9.60445016       21      -0.02151349       0.08285321       0.06550386
H        5.84489385      -1.89516633       9.56609904       22      -0.04679305       0.08891501      -0.03981542
H       -5.53445954       3.23493897       0.91807845       23       0.08095732       0.05914053       0.03974689
H        0.25131050       0.51347389       1.94957474       24      -0.00851037      -0.01871546      -0.03717756
H       -0.54820374      -1.79480395       8.53460275       25      -0.00032964      -0.02044777       0.03709342
H       -2.80766320       2.46899490       5.11315433       26      -0.04083795      -0.01125228       0.00405173
H       -6.60619587       3.34910738       5.37102316       27       0.03167380      -0.02802435      -0.00411385
H       -5.08395866       1.85300514       3.29251401       28       0.00851496       0.01871228       0.03717755
H       -4.83275446       1.79480396       7.19166349       29       0.00034677       0.02045767      -0.03709839
H       -0.92836486       4.63044218       0.12893441       30       0.04083271       0.01124366      -0.00406383
H        2.32185777       1.38385068      10.35524308       31      -0.03167615       0.02802778       0.00411034
C       -0.12835063       1.44534837       3.84841655       32      -0.01445562       0.09213260      -0.08206746
C        0.20260826      -1.12485611       6.63576095       33       0.05361496       0.07627293       0.08205763
C       -0.77226604       2.84130358       5.69336968       34      -0.06051248       0.10292913       0.03487879
C        1.39483372      -0.15433229       4.79080781       35       0.09947553       0.06571034      -0.03489336
C        6.05761888       0.92113066       1.39367220       36       0.01444741      -0.09213796       0.08206892
C       -5.58356646       1.12485611       9.09050530       37      -0.05360165      -0.07626240      -0.08206046
C       -3.51207206       1.89165448      10.03289656       38       0.06052592      -0.10293398      -0.03488949
C        4.53443453       2.52081132       0.45128094       39      -0.09947166      -0.06572023       0.03490336
C       -0.32593927       1.35886302       2.34265801       40      -0.02487613      -0.04884198       0.03836653
C        0.34202778      -1.28942579       8.14151949       41       0.00090463      -0.05509117      -0.03821050
C       -2.26824862       3.05565688       5.86632716       42       0.02524385      -0.06073710       0.01393124
C        2.83264719      -0.61974062       4.61785033       43      -0.04931970      -0.04330906      -0.01374397
C        6.25520752       1.00761601       2.89943074       44       0.02487145       0.04884404      -0.03836703
C       -5.72298598       1.28942580       7.58474676       45      -0.00092428       0.05507705       0.03821242
C       -2.01608948       1.67730118       9.85993908       46      -0.02525468       0.06073117      -0.01389905
C        3.09662106       2.98621965       0.62423841       47       0.04932779       0.04330507       0.01374359
O       -0.42625656       2.75924355       4.28180099       48       0.00567055      -0.06416623       0.01081717
O        1.04798334      -0.07585512       6.20237650       49      -0.03317462      -0.05508602      -0.01086301
O       -1.17294689      -0.80803189       6.28015861       50      -0.00324833      -0.06212848      -0.01994129
O        1.24638404       1.12493657       4.20401888       51      -0.02462107      -0.05716409       0.01989354
O       -3.30977150       4.34019353       0.96028775       52      -0.00567148       0.06416555      -0.01082096
O        4.33297486       0.07585512       9.52388974       53       0.03316910       0.05508587       0.01086843
O       -4.20801131       0.80803190       9.44610763       54       0.00324726       0.06213032       0.01994681
O        4.68288421       1.24154246       1.03806987       55       0.02462458       0.05716878      -0.01989813
