4
Lattice="3.128588 0.0 0.0 -1.5642939988088433 2.709436998432005 0.0 0.0 0.0 5.016955" Properties=species:S:1:pos:R:3:spacegroup_kinds:I:1:momenta:R:3:forces:R:3 spacegroup="P 1" unit_cell=conventional occupancy="_JSON {\"0\": {\"Al\": 1}, \"1\": {\"Al\": 1}, \"2\": {\"N\": 1}, \"3\": {\"N\": 1}}" energy=-29.623741149902344 free_energy=-29.623741149902344 stress="0.0043001254089176655 -0.008672635070979595 0.0028820354491472244 -0.008672635070979595 -0.006943570915609598 -0.004434509668499231 0.0028820354491472244 -0.004434509668499231 -0.01483923476189375" pbc="T T T"
Al       1.54321205       0.89379623       2.53645981        0      -0.00705462      -0.41529107       0.79444818      -0.25250259       0.39302808      -0.87834477
Al       0.03580901       1.79893951       4.98957810        1       0.09337883      -0.29525155      -0.61191816      -0.16601259       0.14058241       0.62745160
N        1.59619755       0.90645095       4.40111847        2      -0.02189736       1.09350709       0.27120928      -0.08899717      -0.09593903       0.34911257
N       -0.05911264       1.83464209       1.91219260        3      -0.06442691      -0.38296449      -0.45373928       0.50751221      -0.43767166      -0.09821973
