4
Lattice="3.128588 0.0 0.0 -1.5642939988088433 2.709436998432005 0.0 0.0 0.0 5.016955" Properties=species:S:1:pos:R:3:spacegroup_kinds:I:1:momenta:R:3:forces:R:3 spacegroup="P 1" unit_cell=conventional occupancy="_JSON {\"0\": {\"Al\": 1}, \"1\": {\"Al\": 1}, \"2\": {\"N\": 1}, \"3\": {\"N\": 1}}" energy=-29.673717498779297 free_energy=-29.673717498779297 stress="-0.0022255240473896265 -1.4006199080540682e-06 2.3024405493288214e-08 -1.4006199080540682e-06 -0.0022274921648204327 -2.8547530561695567e-08 2.3024405493288214e-08 -2.8547530561695567e-08 -0.005453765857964754" pbc="T T T"
Al       1.56429556       0.90314476       2.50490041        0       0.68448204       0.53670047       0.91071479      -0.00003462       0.00001989       0.00553285
Al      -0.00000156       1.80629224       5.01337791        1       0.31075784       0.39520501      -1.87833745       0.00003431      -0.00001923       0.00552322
N        1.56429556       0.90314476       4.41849749        2      -0.23293981      -0.79739853      -0.40745139      -0.00003644       0.00001989      -0.00553043
N       -0.00000156       1.80629224       1.91001999        3      -0.76230006      -0.13450696       1.37507406       0.00003672      -0.00002064      -0.00552542
4
Lattice="3.128588 0.0 0.0 -1.5642939988088433 2.709436998432005 0.0 0.0 0.0 5.016955" Properties=species:S:1:pos:R:3:spacegroup_kinds:I:1:momenta:R:3:forces:R:3 spacegroup="P 1" unit_cell=conventional occupancy="_JSON {\"0\": {\"Al\": 1}, \"1\": {\"Al\": 1}, \"2\": {\"N\": 1}, \"3\": {\"N\": 1}}" energy=-29.43359375 free_energy=-29.43359375 stress="-0.013773360289633274 -0.01644640415906906 0.012948805466294289 -0.01644640415906906 -0.023968638852238655 0.009969741106033325 0.012948805466294289 0.009969741106033325 -0.012059414759278297" pbc="T T T"
Al       1.60246141       0.92231284       2.54150848        0       0.57498225      -0.13491993       1.02882461      -1.31301260      -0.49033523      -0.87831318
Al       0.00328789       1.81111140       4.94718775        1      -0.44725803       0.00118077      -1.07867290      -0.30154139      -0.59423232       1.18011808
N        1.53678587       0.85870779       4.38099594        2       0.14052029      -0.46066745       0.20203874       0.28490758       0.67984498       1.25553751
N       -0.05228246       1.80432670       2.00436659        3      -0.26824453       0.59440661      -0.15219040       1.32964671       0.40472236      -1.55734205
4
Lattice="3.128588 0.0 0.0 -1.5642939988088433 2.709436998432005 0.0 0.0 0.0 5.016955" Properties=species:S:1:pos:R:3:spacegroup_kinds:I:1:momenta:R:3:forces:R:3 spacegroup="P 1" unit_cell=conventional occupancy="_JSON {\"0\": {\"Al\": 1}, \"1\": {\"Al\": 1}, \"2\": {\"N\": 1}, \"3\": {\"N\": 1}}" energy=-29.567256927490234 free_energy=-29.567256927490234 stress="0.012915677390992641 0.0017024236731231213 0.0035793723072856665 0.0017024236731231213 -0.025856932625174522 -0.00536914449185133 0.0035793723072856665 -0.00536914449185133 -0.01143531035631895" pbc="T T T"
Al       1.59598186       0.90138485       2.55101264        0      -0.85004000      -0.64755193      -0.41676321      -0.33522841       0.74370313      -1.26921451
Al      -0.01311800       1.79082859       4.96769660        1      -0.24557035      -0.74327836       1.65595827      -0.18280184      -0.17026724       1.21499825
N        1.52960408       0.86779351       4.41996342        2       0.16413071       0.60763617       0.63654563       0.31887579       0.39321333      -0.09057035
N       -0.00060095       1.87475189       1.90756518        3       0.93147958       0.78319412      -1.87574067       0.19915454      -0.96664929       0.14478675
4
Lattice="3.128588 0.0 0.0 -1.5642939988088433 2.709436998432005 0.0 0.0 0.0 5.016955" Properties=species:S:1:pos:R:3:spacegroup_kinds:I:1:momenta:R:3:forces:R:3 spacegroup="P 1" unit_cell=conventional occupancy="_JSON {\"0\": {\"Al\": 1}, \"1\": {\"Al\": 1}, \"2\": {\"N\": 1}, \"3\": {\"N\": 1}}" energy=-29.406274795532227 free_energy=-29.406274795532227 stress="0.010688692331314087 0.016498234122991562 -0.008163982070982456 0.016498234122991562 -0.009423443116247654 -0.015553992241621017 -0.008163982070982456 -0.015553992241621017 -0.061254072934389114" pbc="T T T"
Al       1.53423928       0.87298460       2.51007451        0      -1.60925416       0.09619227      -1.03262274       0.74608862       1.00298738       0.03482343
Al      -0.01349004       1.78470220       5.05709167        1       0.21561215      -0.04339785       1.72443215       0.02271092       0.40732986      -1.66436899
N        1.55208975       0.92225134       4.42203508        2       0.38659406       0.63935796      -0.93002927       0.04495927      -0.39009738      -0.56986129
N        0.09667399       1.88681819       1.81230437        3       1.00704794      -0.69215237       0.23821989      -0.81375885      -1.02021956       2.19940662
4
Lattice="3.128588 0.0 0.0 -1.5642939988088433 2.709436998432005 0.0 0.0 0.0 5.016955" Properties=species:S:1:pos:R:3:spacegroup_kinds:I:1:momenta:R:3:forces:R:3 spacegroup="P 1" unit_cell=conventional occupancy="_JSON {\"0\": {\"Al\": 1}, \"1\": {\"Al\": 1}, \"2\": {\"N\": 1}, \"3\": {\"N\": 1}}" energy=-29.201902389526367 free_energy=-29.201902389526367 stress="-0.026440879330039024 0.03815538436174393 -0.03138263151049614 0.03815538436174393 -0.00487730884924531 0.0015437908004969358 -0.03138263151049614 0.0015437908004969358 -0.05181986466050148" pbc="T T T"
Al       1.49382401       0.87740193       2.48150489        0      -0.08661651      -0.02748779       0.25595569       2.48428249      -0.46186674       1.22611916
Al      -0.02076738       1.79337851       5.08843295        1       0.00716725       0.60209089      -1.27068295       0.64723182       0.57433361      -2.36004162
N        1.60157224       0.96971684       4.33361321        2       0.49437278       0.53650995      -0.17473355      -0.53882599      -0.70145309       1.74608946
N        0.13924910       1.81421454       1.89535166        3      -0.41492354      -1.11111302       1.18946083      -2.59268808       0.58898592      -0.61216712
4
Lattice="3.128588 0.0 0.0 -1.5642939988088433 2.709436998432005 0.0 0.0 0.0 5.016955" Properties=species:S:1:pos:R:3:spacegroup_kinds:I:1:momenta:R:3:forces:R:3 spacegroup="P 1" unit_cell=conventional occupancy="_JSON {\"0\": {\"Al\": 1}, \"1\": {\"Al\": 1}, \"2\": {\"N\": 1}, \"3\": {\"N\": 1}}" energy=-29.574628829956055 free_energy=-29.574628829956055 stress="-0.023617900907993317 -0.01432133186608553 -0.01112797949463129 -0.01432133186608553 0.015029722824692726 -0.0028546901885420084 -0.01112797949463129 -0.0028546901885420084 -0.014440230093896389" pbc="T T T"
Al       1.53421961       0.88369269       2.53780583        0       1.55944072       0.36820826       1.55971031       0.29264599      -0.24000594      -0.91367739
Al      -0.00048008       1.82107764       4.98837341        1       1.01688602       0.86374322      -2.47525461       0.94369519       0.52251571       0.78486478
N        1.63583967       0.96584647       4.40663186        2      -0.31021938      -0.52489326       1.27117366      -1.15103722      -0.78907037       0.05687865
N       -0.01177519       1.75252285       1.90648729        3      -2.26610733      -0.70705821      -0.35562928      -0.08530389       0.50656092       0.07193403
4
Lattice="3.128588 0.0 0.0 -1.5642939988088433 2.709436998432005 0.0 0.0 0.0 5.016955" Properties=species:S:1:pos:R:3:spacegroup_kinds:I:1:momenta:R:3:forces:R:3 spacegroup="P 1" unit_cell=conventional occupancy="_JSON {\"0\": {\"Al\": 1}, \"1\": {\"Al\": 1}, \"2\": {\"N\": 1}, \"3\": {\"N\": 1}}" energy=-29.3720703125 free_energy=-29.3720703125 stress="-0.0056296116672456264 -0.018719371408224106 0.015849513933062553 -0.018719371408224106 -0.032272931188344955 0.017212234437465668 0.015849513933062553 0.017212234437465668 -0.007298205513507128" pbc="T T T"
Al       1.57072835       0.88046441       2.56331977        0      -0.00039195      -0.37629502      -0.57844101      -1.34386420      -0.44065726      -1.50707841
Al       0.05055072       1.86456079       4.94968569        1       0.52727072       0.77034120       1.04960239      -0.49129003      -1.36433804       1.82584870
N        1.58204796       0.88176660       4.44992391        2      -0.27832296      -1.02263342      -0.55459297       0.15003723       1.16376233      -0.85894936
N       -0.12661086       1.75915461       1.88869867        3      -0.24855580       0.62858725       0.08343159       1.68511701       0.64123321       0.54017913
4
Lattice="3.128588 0.0 0.0 -1.5642939988088433 2.709436998432005 0.0 0.0 0.0 5.016955" Properties=species:S:1:pos:R:3:spacegroup_kinds:I:1:momenta:R:3:forces:R:3 spacegroup="P 1" unit_cell=conventional occupancy="_JSON {\"0\": {\"Al\": 1}, \"1\": {\"Al\": 1}, \"2\": {\"N\": 1}, \"3\": {\"N\": 1}}" energy=-29.596923828125 free_energy=-29.596923828125 stress="0.015976207330822945 -0.004505931865423918 0.00601864792406559 -0.004505931865423918 -0.025499356910586357 -0.004597092978656292 0.00601864792406559 -0.004597092978656292 -0.010013973340392113" pbc="T T T"
Al       1.53284808       0.86390066       2.51395076        0      -1.59464548      -0.16469610      -1.74991345      -0.27820635       0.89915729      -0.15420467
Al       0.06317844       1.83227863       5.00948381        1       0.38440010      -1.80666609       1.59449907      -0.58708376      -0.41271496       0.16725013
N        1.58572474       0.89623789       4.41422575        2       0.14193214       1.12964953      -0.09119140       0.25704125       0.38076538       0.00228149
N       -0.08152110       1.83862423       1.90381447        3       1.06831323       0.84171270       0.24660574       0.60824919      -0.86720753      -0.01532695
4
Lattice="3.128588 0.0 0.0 -1.5642939988088433 2.709436998432005 0.0 0.0 0.0 5.016955" Properties=species:S:1:pos:R:3:spacegroup_kinds:I:1:momenta:R:3:forces:R:3 spacegroup="P 1" unit_cell=conventional occupancy="_JSON {\"0\": {\"Al\": 1}, \"1\": {\"Al\": 1}, \"2\": {\"N\": 1}, \"3\": {\"N\": 1}}" energy=-29.462554931640625 free_energy=-29.462554931640625 stress="-0.005697185173630714 0.010849425569176674 -0.003906602971255779 0.010849425569176674 -0.01913386397063732 -0.012703190557658672 -0.003906602971255779 -0.012703190557658672 -0.011871409602463245" pbc="T T T"
Al       1.48347329       0.88264397       2.44527927        0      -0.30454575       1.01149579      -0.60004573       0.88393188       0.95768332       1.70776975
Al       0.06164410       1.77681258       5.07306073        1      -0.86715278      -0.75617352       0.43048936      -0.30080765       0.71655273      -1.72279906
N        1.61717713       0.94947186       4.40498427        2       0.38645909       0.04830043       0.18623322      -0.07233881      -0.67485929       0.48910636
N       -0.01486934       1.85626145       1.92266703        3       0.78523946      -0.30362270      -0.01667685      -0.51078540      -0.99937660      -0.47407681
4
Lattice="3.128588 0.0 0.0 -1.5642939988088433 2.709436998432005 0.0 0.0 0.0 5.016955" Properties=species:S:1:pos:R:3:spacegroup_kinds:I:1:momenta:R:3:forces:R:3 spacegroup="P 1" unit_cell=conventional occupancy="_JSON {\"0\": {\"Al\": 1}, \"1\": {\"Al\": 1}, \"2\": {\"N\": 1}, \"3\": {\"N\": 1}}" energy=-29.518749237060547 free_energy=-29.518749237060547 stress="-0.023370938375592232 0.0065400199964642525 -0.0160982646048069 0.0065400199964642525 0.006697280332446098 -0.0004823926428798586 -0.0160982646048069 -0.0004823926428798586 -0.022161195054650307" pbc="T T T"
Al       1.50607636       0.94974321       2.46463696        0       1.15921323       0.62635154       1.50689987       1.24247527      -0.60704637       1.15697443
Al       0.01335472       1.75088040       5.06242873        1      -0.91111970       0.14825278      -0.88962681       0.51474738       0.69610721      -1.43088818
N        1.62637960       0.90489618       4.42127859        2      -0.14223581      -0.64065077       0.21498384      -0.71771902      -0.51824266      -0.07984965
N        0.02538009       1.82158363       1.88963027        3      -0.10585769      -0.13395353      -0.83225697      -1.03950357       0.42918235       0.35376316
4
Lattice="3.128588 0.0 0.0 -1.5642939988088433 2.709436998432005 0.0 0.0 0.0 5.016955" Properties=species:S:1:pos:R:3:spacegroup_kinds:I:1:momenta:R:3:forces:R:3 spacegroup="P 1" unit_cell=conventional occupancy="_JSON {\"0\": {\"Al\": 1}, \"1\": {\"Al\": 1}, \"2\": {\"N\": 1}, \"3\": {\"N\": 1}}" energy=-29.60500717163086 free_energy=-29.60500717163086 stress="0.0015957715222612023 -0.006785965524613857 -0.0030954552348703146 -0.006785965524613857 0.0017807799158617854 0.001724398578517139 -0.0030954552348703146 0.001724398578517139 -0.02311370149254799" pbc="T T T"
Al       1.56693923       0.93861029       2.54470911        0       1.44875362      -0.98943878       1.48437414      -0.01659567      -0.29131335      -1.20300889
Al      -0.01304567       1.78057347       4.99752450        1       0.01689833       1.11024932      -1.70730010       0.38438842       0.02358297       0.50760645
N        1.58384202       0.87104969       4.42155574        2      -0.67927493      -0.02704911      -0.19037177      -0.39237010       0.15177676      -0.39792541
N        0.00122210       1.81989283       1.85992052        3      -0.78637701      -0.09376143       0.41329769       0.02457752       0.11595370       1.09332740
4
Lattice="3.128588 0.0 0.0 -1.5642939988088433 2.709436998432005 0.0 0.0 0.0 5.016955" Properties=species:S:1:pos:R:3:spacegroup_kinds:I:1:momenta:R:3:forces:R:3 spacegroup="P 1" unit_cell=conventional occupancy="_JSON {\"0\": {\"Al\": 1}, \"1\": {\"Al\": 1}, \"2\": {\"N\": 1}, \"3\": {\"N\": 1}}" energy=-29.470205307006836 free_energy=-29.470205307006836 stress="0.0032030444126576185 -0.01780153065919876 0.011838363483548164 -0.01780153065919876 -0.04134929180145264 0.007359909359365702 0.011838363483548164 0.007359909359365702 -0.005160402040928602" pbc="T T T"
Al       1.62755628       0.89950077       2.54516754        0       1.04970791      -0.99981844      -0.80202939      -1.41065264       0.15933198      -0.91778761
Al      -0.00757054       1.81703571       4.95606284        1      -0.03758017       0.11959830      -0.16512735      -0.26242819      -0.84351456       1.41445577
N        1.52756232       0.85151205       4.42065483        2      -0.42752163       0.29023080      -0.07965781       0.31765974       0.98894501      -0.00115392
N       -0.06966670       1.84442118       1.93994534        3      -0.58460611       0.58998935       1.04681449       1.35542107      -0.30476236      -0.49551481
4
Lattice="3.128588 0.0 0.0 -1.5642939988088433 2.709436998432005 0.0 0.0 0.0 5.016955" Properties=species:S:1:pos:R:3:spacegroup_kinds:I:1:momenta:R:3:forces:R:3 spacegroup="P 1" unit_cell=conventional occupancy="_JSON {\"0\": {\"Al\": 1}, \"1\": {\"Al\": 1}, \"2\": {\"N\": 1}, \"3\": {\"N\": 1}}" energy=-29.452987670898438 free_energy=-29.452987670898438 stress="-0.013225226663053036 -0.023750143125653267 0.00791146606206894 -0.023750143125653267 -0.04793184995651245 -0.007333277724683285 0.00791146606206894 -0.007333277724683285 0.028633134439587593" pbc="T T T"
Al       1.63184040       0.85684030       2.46693551        0      -0.97589065      -0.55899509      -1.34838387      -1.39010751       1.11026061       1.17303443
Al      -0.02377745       1.82170279       4.98999598        1      -0.28018898       0.45883544       1.28013483      -0.08532427       0.08283207       0.34697267
N        1.52792702       0.92957751       4.44479004        2       0.11446506       0.97873223       0.08012611       0.22036074      -0.17398460       0.05599196
N       -0.04718873       1.83921501       2.00086010        3       1.14161454      -0.87857258      -0.01187712       1.25507104      -1.01910806      -1.57599902
4
Lattice="3.128588 0.0 0.0 -1.5642939988088433 2.709436998432005 0.0 0.0 0.0 5.016955" Properties=species:S:1:pos:R:3:spacegroup_kinds:I:1:momenta:R:3:forces:R:3 spacegroup="P 1" unit_cell=conventional occupancy="_JSON {\"0\": {\"Al\": 1}, \"1\": {\"Al\": 1}, \"2\": {\"N\": 1}, \"3\": {\"N\": 1}}" energy=-29.53631591796875 free_energy=-29.53631591796875 stress="-0.019857661798596382 0.013828904367983341 -0.0057173967361450195 0.013828904367983341 -0.0031640727538615465 -0.0016709689516574144 -0.0057173967361450195 -0.0016709689516574144 -0.006260656751692295" pbc="T T T"
Al       1.56291507       0.86348349       2.43836898        0      -1.44558829       0.38889077       0.34074973       0.67285973       0.11609383       1.45909452
Al      -0.01834144       1.83613135       5.05736566        1       0.19731515      -0.00921535       1.04742094       0.06595186       0.15003663      -1.19267392
N        1.54726700       0.95741148       4.47045645        2      -0.01024050       0.05685012       0.14844058       0.09761475      -0.44421059      -0.65174711
N        0.05576968       1.77068662       1.90062728        3       1.25851364      -0.43652556      -1.53661126      -0.83642626       0.17807993       0.38532630
4
Lattice="3.128588 0.0 0.0 -1.5642939988088433 2.709436998432005 0.0 0.0 0.0 5.016955" Properties=species:S:1:pos:R:3:spacegroup_kinds:I:1:momenta:R:3:forces:R:3 spacegroup="P 1" unit_cell=conventional occupancy="_JSON {\"0\": {\"Al\": 1}, \"1\": {\"Al\": 1}, \"2\": {\"N\": 1}, \"3\": {\"N\": 1}}" energy=-29.5310001373291 free_energy=-29.5310001373291 stress="-0.018293971195816994 0.01570754311978817 -0.011607700027525425 0.01570754311978817 0.0031478353776037693 0.0046056341379880905 -0.011607700027525425 0.0046056341379880905 -0.017258908599615097" pbc="T T T"
Al       1.54701076       0.87273545       2.46070916        0       0.71855766      -0.11584409       0.49435355       1.07476652      -0.28505728       1.06925452
Al      -0.01761628       1.84389394       5.05391116        1       0.19346442       0.17720450      -0.69190090       0.23187697      -0.07941992      -1.16825080
N        1.56395349       0.94331120       4.45961401        2       0.32487385      -0.12409458      -0.51346254      -0.11547148      -0.20503160      -0.72920263
N        0.06831354       1.75176768       1.87546339        3      -1.23689596       0.06273415       0.71100990      -1.19117212       0.56950915       0.82819879
4
Lattice="3.128588 0.0 0.0 -1.5642939988088433 2.709436998432005 0.0 0.0 0.0 5.016955" Properties=species:S:1:pos:R:3:spacegroup_kinds:I:1:momenta:R:3:forces:R:3 spacegroup="P 1" unit_cell=conventional occupancy="_JSON {\"0\": {\"Al\": 1}, \"1\": {\"Al\": 1}, \"2\": {\"N\": 1}, \"3\": {\"N\": 1}}" energy=-29.613210678100586 free_energy=-29.613210678100586 stress="-0.008381659165024757 -0.004276688676327467 0.0054928092285990715 -0.004276688676327467 -0.013937250711023808 0.001480467850342393 0.0054928092285990715 0.001480467850342393 0.012475370429456234" pbc="T T T"
Al       1.57767911       0.87033376       2.48321564        0       0.42145957      -0.10086023       0.75449367      -0.50598621       0.14215341       0.64867741
Al       0.00878680       1.84488740       5.00616578        1       0.94842505       0.04829648      -0.67234592      -0.28190762      -0.37569788       0.05942829
N        1.54733731       0.91884310       4.41695257        2      -0.50233588      -0.06173818      -0.86681686       0.26756531       0.16352618       0.34766591
N       -0.02491941       1.77881445       1.96659668        3      -0.86754876       0.11430192       0.78466916       0.52032864       0.07001817      -1.05577123
4
Lattice="3.128588 0.0 0.0 -1.5642939988088433 2.709436998432005 0.0 0.0 0.0 5.016955" Properties=species:S:1:pos:R:3:spacegroup_kinds:I:1:momenta:R:3:forces:R:3 spacegroup="P 1" unit_cell=conventional occupancy="_JSON {\"0\": {\"Al\": 1}, \"1\": {\"Al\": 1}, \"2\": {\"N\": 1}, \"3\": {\"N\": 1}}" energy=-29.55784034729004 free_energy=-29.55784034729004 stress="-0.016363708302378654 -0.002947569591924548 0.012903803028166294 -0.002947569591924548 -0.006207768339663744 0.0015375255607068539 0.012903803028166294 0.0015375255607068539 -0.002714776434004307" pbc="T T T"
Al       1.59068818       0.88023430       2.52274585        0      -0.41625599       0.17887090       0.33160777      -0.90884542      -0.14031205      -0.36867863
Al       0.01872289       1.83477377       4.97781995        1       0.14973919      -0.20763060      -0.17578483      -0.72829747      -0.10046270       0.72652829
N        1.52039168       0.92489995       4.39464372        2       0.19754427       0.25939910       0.47781785       0.72475982      -0.09604883       0.71574020
N       -0.04216865       1.77342026       1.96745698        3       0.06897253      -0.23063942      -0.63364080       0.91238302       0.33682361      -1.07358980
4
Lattice="3.128588 0.0 0.0 -1.5642939988088433 2.709436998432005 0.0 0.0 0.0 5.016955" Properties=species:S:1:pos:R:3:spacegroup_kinds:I:1:momenta:R:3:forces:R:3 spacegroup="P 1" unit_cell=conventional occupancy="_JSON {\"0\": {\"Al\": 1}, \"1\": {\"Al\": 1}, \"2\": {\"N\": 1}, \"3\": {\"N\": 1}}" energy=-29.621109008789062 free_energy=-29.621109008789062 stress="-0.021500755101442337 0.005276357289403677 -0.0032674395479261875 0.005276357289403677 0.010658099316060543 0.0019248906755819917 -0.0032674395479261875 0.0019248906755819917 -0.0015896944096311927" pbc="T T T"
Al       1.54767652       0.89587763       2.50832858        0      -0.85810044       0.46896513      -1.00002966       0.39160413      -0.39029071      -0.15032575
Al       0.00665797       1.82067514       5.00342497        1      -0.72966933      -0.11082660       1.46536670      -0.00949404       0.22697130       0.34862825
N        1.57185932       0.94293300       4.45440723        2       0.62349850      -0.37686514       0.64593250      -0.01970206      -0.43335515      -0.83889908
N        0.01256036       1.75229420       1.88600531        3       0.96427130       0.01872661      -1.11126964      -0.36240798       0.59667474       0.64059669
4
Lattice="3.128588 0.0 0.0 -1.5642939988088433 2.709436998432005 0.0 0.0 0.0 5.016955" Properties=species:S:1:pos:R:3:spacegroup_kinds:I:1:momenta:R:3:forces:R:3 spacegroup="P 1" unit_cell=conventional occupancy="_JSON {\"0\": {\"Al\": 1}, \"1\": {\"Al\": 1}, \"2\": {\"N\": 1}, \"3\": {\"N\": 1}}" energy=-29.520856857299805 free_energy=-29.520856857299805 stress="-0.014047592878341675 0.011820951476693153 -0.014255537651479244 0.011820951476693153 -0.005614523310214281 0.009361529722809792 -0.014255537651479244 0.009361529722809792 -0.019571073353290558" pbc="T T T"
Al       1.52999429       0.91403917       2.46474574        0       0.09545082      -0.23101270      -1.18071328       1.21875405      -0.63577503       0.99290180
Al      -0.00890656       1.82180733       5.05208964        1       0.31217016      -0.10747408       0.45537690       0.39472607      -0.38378561      -1.12710428
N        1.59437708       0.88605553       4.45928987        2      -0.04799097      -0.53350385      -0.20523388      -0.40810382       0.35579008      -0.79021609
N        0.05384454       1.77207219       1.87144997        3      -0.35963001       0.87199061       0.93057022      -1.20537639       0.66377056       0.92441833
4
Lattice="3.128588 0.0 0.0 -1.5642939988088433 2.709436998432005 0.0 0.0 0.0 5.016955" Properties=species:S:1:pos:R:3:spacegroup_kinds:I:1:momenta:R:3:forces:R:3 spacegroup="P 1" unit_cell=conventional occupancy="_JSON {\"0\": {\"Al\": 1}, \"1\": {\"Al\": 1}, \"2\": {\"N\": 1}, \"3\": {\"N\": 1}}" energy=-29.61878776550293 free_energy=-29.61878776550293 stress="0.010117776691913605 -0.0018219054909422994 -0.001873007626272738 -0.0018219054909422994 -0.024783259257674217 0.004591196309775114 -0.001873007626272738 0.004591196309775114 2.6610068744048476e-05" pbc="T T T"
Al       1.53818034       0.90928017       2.47247634        0       0.23228574      -0.27447269       1.41733275       0.21201199       0.18702510       0.85530740
Al       0.01802693       1.81430744       5.03506514        1       0.60360860      -0.42930288      -1.11140693       0.03760070      -0.69444168      -0.55142874
N        1.59518007       0.85128044       4.42414640        2       0.09084610       0.02420721      -0.77345518      -0.19470114       0.84070635       0.01228926
N       -0.01452981       1.83034440       1.92467361        3      -0.92674050       0.67956837       0.46752936      -0.05491147      -0.33328971      -0.31616795
4
Lattice="3.128588 0.0 0.0 -1.5642939988088433 2.709436998432005 0.0 0.0 0.0 5.016955" Properties=species:S:1:pos:R:3:spacegroup_kinds:I:1:momenta:R:3:forces:R:3 spacegroup="P 1" unit_cell=conventional occupancy="_JSON {\"0\": {\"Al\": 1}, \"1\": {\"Al\": 1}, \"2\": {\"N\": 1}, \"3\": {\"N\": 1}}" energy=-29.623741149902344 free_energy=-29.623741149902344 stress="0.0043001254089176655 -0.008672635070979595 0.0028820354491472244 -0.008672635070979595 -0.006943570915609598 -0.004434509668499231 0.0028820354491472244 -0.004434509668499231 -0.01483923476189375" pbc="T T T"
Al       1.54321205       0.89379623       2.53645981        0      -0.00705462      -0.41529107       0.79444818      -0.25250259       0.39302808      -0.87834477
Al       0.03580901       1.79893951       4.98957810        1       0.09337883      -0.29525155      -0.61191816      -0.16601259       0.14058241       0.62745160
N        1.59619755       0.90645095       4.40111847        2      -0.02189736       1.09350709       0.27120928      -0.08899717      -0.09593903       0.34911257
N       -0.05911264       1.83464209       1.91219260        3      -0.06442691      -0.38296449      -0.45373928       0.50751221      -0.43767166      -0.09821973
