4
Lattice="3.128588 0.0 0.0 -1.5642939988088433 2.709436998432005 0.0 0.0 0.0 5.016955" Properties=species:S:1:pos:R:3:spacegroup_kinds:I:1:forces:R:3 spacegroup="P 1" unit_cell=conventional occupancy="_JSON {\"0\": {\"Al\": 1}, \"1\": {\"Al\": 1}, \"2\": {\"N\": 1}, \"3\": {\"N\": 1}}" energy=-29.673717498779297 free_energy=-29.673717498779297 stress="-0.0022255240473896265 -1.4006199080540682e-06 2.3024405493288214e-08 -1.4006199080540682e-06 -0.0022274921648204327 -2.8547530561695567e-08 2.3024405493288214e-08 -2.8547530561695567e-08 -0.005453765857964754" pbc="T T T"
Al       1.56429556       0.90314476       2.50490041        0      -0.00003462       0.00001989       0.00553285
Al      -0.00000156       1.80629224       5.01337791        1       0.00003431      -0.00001923       0.00552322
N        1.56429556       0.90314476       4.41849749        2      -0.00003644       0.00001989      -0.00553043
N       -0.00000156       1.80629224       1.91001999        3       0.00003672      -0.00002064      -0.00552542
