13
Lattice="7.26870274 0.0 0.0 3.634351370000001 6.294881225397555 0.0 3.634351370000001 2.0982937417991856 5.934870934989993" Properties=species:S:1:pos:R:3:spacegroup_kinds:I:1:forces:R:3 spacegroup="P 1" unit_cell=conventional occupancy="_JSON {\"0\": {\"Li\": 1}, \"1\": {\"Li\": 1}, \"2\": {\"Li\": 1}, \"3\": {\"Li\": 1}, \"4\": {\"Li\": 1}, \"5\": {\"Li\": 1}, \"6\": {\"P\": 1}, \"7\": {\"S\": 1}, \"8\": {\"S\": 1}, \"9\": {\"S\": 1}, \"10\": {\"S\": 1}, \"11\": {\"S\": 1}, \"12\": {\"Cl\": 1}}" energy=-53.3634147644043 free_energy=-53.3634147644043 stress="-0.0007942049414850771 -2.389977851180447e-07 -1.4939311654416088e-07 -2.389977851180447e-07 -0.0007939426577650011 -1.1355990636729985e-07 -1.4939311654416088e-07 -1.1355990636729985e-07 -0.0007939085480757058" pbc="T T T"
Li       9.25387995       7.24703237       3.10460814        0       0.00422597      -0.00243455       0.00344738
Li      12.55222827       5.34273008       5.79769826        1      -0.00421113       0.00243334      -0.00344146
Li       9.25387995       5.34273008       5.79769826        2       0.00422506       0.00243852      -0.00344684
Li      12.55222827       7.24703237       3.10460814        3      -0.00421175      -0.00243078       0.00344151
Li      10.90305411       4.39057894       3.10460814        4       0.00000263       0.00487547       0.00344778
Li      10.90305411       8.19918351       5.79769826        5       0.00000209      -0.00486361      -0.00344156
P        7.26870274       4.19658748       2.96743547        6       0.00008515       0.00004614       0.00003572
S        7.26870637       6.13578650       2.28182731        7      -0.00001807      -0.01090904       0.00384763
S        8.94810016       3.22699113       2.28182731        8      -0.00945841       0.00544076       0.00384736
S        5.58931258       3.22699113       2.28182731        9       0.00937797       0.00541311       0.00383055
S        7.26870637       4.19658958       5.02426588       10      -0.00001849      -0.00000966      -0.01156871
S       10.90305411       6.29488123       4.45115320       11      -0.00000154      -0.00000084       0.00000019
Cl       0.00000000       0.00000000       0.00000000       12       0.00000052       0.00000121       0.00000044
