13
Lattice="7.26870274 0.0 0.0 3.634351370000001 6.294881225397555 0.0 3.634351370000001 2.0982937417991856 5.934870934989993" Properties=species:S:1:pos:R:3:spacegroup_kinds:I:1:momenta:R:3:forces:R:3 spacegroup="P 1" unit_cell=conventional occupancy="_JSON {\"0\": {\"Li\": 1}, \"1\": {\"Li\": 1}, \"2\": {\"Li\": 1}, \"3\": {\"Li\": 1}, \"4\": {\"Li\": 1}, \"5\": {\"Li\": 1}, \"6\": {\"P\": 1}, \"7\": {\"S\": 1}, \"8\": {\"S\": 1}, \"9\": {\"S\": 1}, \"10\": {\"S\": 1}, \"11\": {\"S\": 1}, \"12\": {\"Cl\": 1}}" energy=-53.2975959777832 free_energy=-53.2975959777832 stress="-0.0018874602392315865 -0.0001761148014338687 0.003190039424225688 -0.0001761148014338687 0.0014548362232744694 0.0005698814056813717 0.003190039424225688 0.0005698814056813717 -0.0005220259772613645" pbc="T T T"
Li       9.22862120       7.30505696       3.19312917        0      -0.38745753      -0.20935316       0.19706838      -0.07488296       0.00574151      -0.00643132
Li      12.62761331       5.36277785       5.77137639        1       0.09470709       0.17724642      -0.15543154      -0.04486719       0.14687297       0.06514040
Li       9.33820274       5.28059341       5.77309522        2       0.01107860      -0.49155827      -0.05971152      -0.19314735      -0.13685045       0.08186406
Li      12.54908228       7.25294445       3.16408616        3       0.22285750      -0.18484626       0.03750967      -0.04397386       0.06354101       0.02494066
Li      11.02365478       4.32779511       3.15186837        4      -0.10635117       0.12147571       0.38622937      -0.44442028       0.17059857       0.08605967
Li      10.91873922       8.22294616       5.82382461        5       0.32668659       0.00929559      -0.00072249       0.02259938      -0.09825387      -0.04326509
P        7.26613174       4.23052769       2.93131854        6      -0.23541316       0.16938543      -0.42701543       0.28729999      -0.22333348       0.35617071
S        7.23954065       6.18627074       2.29932688        7      -0.29001440       0.87481024       0.18091210       0.15233855      -0.10143472      -0.00946386
S        8.92961715       3.20201204       2.27490047        8      -0.11931041      -0.05385387      -0.34779945       0.04584387       0.28139621      -0.03761779
S        5.59301338       3.26524021       2.23271050        9       0.54894273       0.26058083      -0.37424087       0.11332254      -0.17781959       0.01873090
S        7.30392693       4.18515105       5.00947137       10       0.60490878      -0.05839365       0.14205306      -0.09645277       0.08634587      -0.28785509
S       10.88234541       6.29915749       4.47571211       11      -0.21863230       0.49898728       0.38019578       0.30911633      -0.05106692      -0.09979477
Cl      -0.02371289      -0.07745470       0.02390699       12      -0.45200232      -1.11377631       0.04095295      -0.03277616       0.03426294      -0.14847851
