13
Lattice="7.26870274 0.0 0.0 3.634351370000001 6.294881225397555 0.0 3.634351370000001 2.0982937417991856 5.934870934989993" Properties=species:S:1:pos:R:3:spacegroup_kinds:I:1:momenta:R:3:forces:R:3 spacegroup="P 1" unit_cell=conventional occupancy="_JSON {\"0\": {\"Li\": 1}, \"1\": {\"Li\": 1}, \"2\": {\"Li\": 1}, \"3\": {\"Li\": 1}, \"4\": {\"Li\": 1}, \"5\": {\"Li\": 1}, \"6\": {\"P\": 1}, \"7\": {\"S\": 1}, \"8\": {\"S\": 1}, \"9\": {\"S\": 1}, \"10\": {\"S\": 1}, \"11\": {\"S\": 1}, \"12\": {\"Cl\": 1}}" energy=-53.3634147644043 free_energy=-53.3634147644043 stress="-0.0007942158845253289 -2.341405433980981e-07 -1.624816690082298e-07 -2.341405433980981e-07 -0.0007939307834021747 -1.0593137744763226e-07 -1.624816690082298e-07 -1.0593137744763226e-07 -0.0007939155329950154" pbc="T T T"
Li       9.25387995       7.24703237       3.10460814        0       0.00000000       0.00000000       0.00000000       0.00422510      -0.00243422       0.00344715
Li      12.55222827       5.34273008       5.79769826        1       0.00000000       0.00000000       0.00000000      -0.00421041       0.00243289      -0.00344083
Li       9.25387995       5.34273008       5.79769826        2       0.00000000       0.00000000       0.00000000       0.00422444       0.00243882      -0.00344650
Li      12.55222827       7.24703237       3.10460814        3       0.00000000       0.00000000       0.00000000      -0.00421187      -0.00243086       0.00344121
Li      10.90305411       4.39057894       3.10460814        4       0.00000000       0.00000000       0.00000000       0.00000262       0.00487599       0.00344833
Li      10.90305411       8.19918351       5.79769826        5       0.00000000       0.00000000       0.00000000       0.00000180      -0.00486322      -0.00344115
P        7.26870274       4.19658748       2.96743547        6       0.00000000       0.00000000       0.00000000       0.00008511       0.00004600       0.00003586
S        7.26870637       6.13578650       2.28182731        7       0.00000000       0.00000000       0.00000000      -0.00001820      -0.01090892       0.00384741
S        8.94810016       3.22699113       2.28182731        8       0.00000000       0.00000000       0.00000000      -0.00945783       0.00543993       0.00384714
S        5.58931258       3.22699113       2.28182731        9       0.00000000       0.00000000       0.00000000       0.00937778       0.00541300       0.00382995
S        7.26870637       4.19658958       5.02426588       10       0.00000000       0.00000000       0.00000000      -0.00001842      -0.00000978      -0.01156923
S       10.90305411       6.29488123       4.45115320       11       0.00000000       0.00000000       0.00000000      -0.00000170      -0.00000021      -0.00000069
Cl       0.00000000       0.00000000       0.00000000       12       0.00000000       0.00000000       0.00000000       0.00000162       0.00000062       0.00000136
13
Lattice="7.26870274 0.0 0.0 3.634351370000001 6.294881225397555 0.0 3.634351370000001 2.0982937417991856 5.934870934989993" Properties=species:S:1:pos:R:3:spacegroup_kinds:I:1:momenta:R:3:forces:R:3 spacegroup="P 1" unit_cell=conventional occupancy="_JSON {\"0\": {\"Li\": 1}, \"1\": {\"Li\": 1}, \"2\": {\"Li\": 1}, \"3\": {\"Li\": 1}, \"4\": {\"Li\": 1}, \"5\": {\"Li\": 1}, \"6\": {\"P\": 1}, \"7\": {\"S\": 1}, \"8\": {\"S\": 1}, \"9\": {\"S\": 1}, \"10\": {\"S\": 1}, \"11\": {\"S\": 1}, \"12\": {\"Cl\": 1}}" energy=-53.36328887939453 free_energy=-53.36328887939453 stress="-0.0007912618457339704 -1.6929738194448873e-05 4.38197203038726e-05 -1.6929738194448873e-05 -0.0008027083822526038 4.450650521903299e-05 4.38197203038726e-05 4.450650521903299e-05 -0.0009540809551253915" pbc="T T T"
Li       9.25229552       7.24943288       3.10489315        0      -0.06120580       0.08130474       0.04922769       0.01099443      -0.01014130       0.01068424
Li      12.55273415       5.34222078       5.79645070        1       0.02371871      -0.01443667      -0.06169259      -0.00399037       0.00094346       0.00160362
Li       9.25022799       5.34386449       5.79752384        2      -0.11601182       0.05064788       0.05364236       0.01430818       0.00868705      -0.00718963
Li      12.55034881       7.24945718       3.10747237        3      -0.05949295       0.09467130       0.14470853       0.00495540      -0.00897956       0.00113035
Li      10.90403865       4.38980475       3.10329388        4       0.09543155      -0.03897608      -0.03046105      -0.00342051       0.01128067       0.00763744
Li      10.90093936       8.19964183       5.79975059        5      -0.08228938       0.03482213       0.10709547      -0.00125772      -0.01014269      -0.00919448
P        7.26956647       4.19618576       2.96693139        6       0.11698201      -0.08051441      -0.16452234      -0.01731939       0.01015495      -0.01149404
S        7.26825281       6.13604472       2.28291131        7      -0.08240324       0.12813067       0.12985723      -0.00173881      -0.01030508       0.00288855
S        8.94806299       3.22609773       2.28256348        8       0.04485878      -0.22148012       0.22343024      -0.00086636       0.00550083      -0.00918187
S        5.58890638       3.22758256       2.28140873        9      -0.00761130       0.16100114      -0.17914875       0.01794739       0.00517720       0.00245914
S        7.26916832       4.19654783       5.02248663       10       0.03750182      -0.07189210      -0.34862613      -0.00448379      -0.00617576       0.01033044
S       10.90382948       6.29379355       4.45146934       11       0.06868005      -0.20098517       0.07513348      -0.01730237       0.00713700       0.00212796
Cl       0.00041177       0.00048780      -0.00001901       12       0.02184156       0.07770669       0.00135587       0.00217397      -0.00313669      -0.00180173
13
Lattice="7.26870274 0.0 0.0 3.634351370000001 6.294881225397555 0.0 3.634351370000001 2.0982937417991856 5.934870934989993" Properties=species:S:1:pos:R:3:spacegroup_kinds:I:1:momenta:R:3:forces:R:3 spacegroup="P 1" unit_cell=conventional occupancy="_JSON {\"0\": {\"Li\": 1}, \"1\": {\"Li\": 1}, \"2\": {\"Li\": 1}, \"3\": {\"Li\": 1}, \"4\": {\"Li\": 1}, \"5\": {\"Li\": 1}, \"6\": {\"P\": 1}, \"7\": {\"S\": 1}, \"8\": {\"S\": 1}, \"9\": {\"S\": 1}, \"10\": {\"S\": 1}, \"11\": {\"S\": 1}, \"12\": {\"Cl\": 1}}" energy=-53.36275863647461 free_energy=-53.36275863647461 stress="-0.0006526628276333213 -2.9145492135285167e-06 0.00014870877203065902 -2.9145492135285167e-06 -0.0006068793591111898 0.0001416161539964378 0.00014870877203065902 0.0001416161539964378 -0.0011338443728163838" pbc="T T T"
Li       9.25079505       7.25171927       3.10754875        0      -0.00537891       0.10233444       0.09320979       0.01364017      -0.01409981       0.01356877
Li      12.55401285       5.34381743       5.79299730        1       0.12422892       0.06325028      -0.06134767       0.00271263      -0.00334444       0.01871146
Li       9.24794363       5.34528698       5.79715030        2      -0.00265702       0.11808846      -0.00514271       0.01751214       0.01006237      -0.01342236
Li      12.54868033       7.25320669       3.11325808        3      -0.06044776       0.14433986       0.16924853       0.01579279      -0.01763335      -0.00180902
Li      10.90802830       4.38657450       3.10196243        4       0.17328904      -0.10654809       0.03611993      -0.01656294       0.02566177       0.01665382
Li      10.89959043       8.19855531       5.80380144        5      -0.00577538      -0.02369021       0.13817073      -0.00252770      -0.00813844      -0.01997619
P        7.26993179       4.19595427       2.96545727        6       0.06511467      -0.13962470      -0.19094402      -0.02531199       0.01835435      -0.02388831
S        7.26751448       6.13772084       2.28418109        7      -0.17386547       0.27386124       0.07488685      -0.00374972      -0.02433968       0.00601577
S        8.94895693       3.22417770       2.28444230        8       0.03662145      -0.26178592       0.24948438      -0.00970078       0.01904351      -0.03090395
S        5.58733706       3.22826616       2.27866082        9      -0.22373871       0.02364271      -0.40564749       0.04812738       0.00564271       0.01058207
S        7.26983257       4.19689462       5.01981107       10       0.14909323       0.04147854      -0.33458739      -0.01329936      -0.01768430       0.03101121
S       10.90407391       6.29202499       4.45206513       11      -0.20805111      -0.16524244       0.01865546      -0.02924226       0.01485742       0.00115069
Cl       0.00082964       0.00072800       0.00134992       12       0.13156704      -0.07010417       0.21789362       0.00260963      -0.00838211      -0.00769398
13
Lattice="7.26870274 0.0 0.0 3.634351370000001 6.294881225397555 0.0 3.634351370000001 2.0982937417991856 5.934870934989993" Properties=species:S:1:pos:R:3:spacegroup_kinds:I:1:momenta:R:3:forces:R:3 spacegroup="P 1" unit_cell=conventional occupancy="_JSON {\"0\": {\"Li\": 1}, \"1\": {\"Li\": 1}, \"2\": {\"Li\": 1}, \"3\": {\"Li\": 1}, \"4\": {\"Li\": 1}, \"5\": {\"Li\": 1}, \"6\": {\"P\": 1}, \"7\": {\"S\": 1}, \"8\": {\"S\": 1}, \"9\": {\"S\": 1}, \"10\": {\"S\": 1}, \"11\": {\"S\": 1}, \"12\": {\"Cl\": 1}}" energy=-53.36161422729492 free_energy=-53.36161422729492 stress="-0.0005189366056583822 7.945044490043074e-05 0.0003595714224502444 7.945044490043074e-05 -0.0003436740080360323 0.00023952445189934224 0.0003595714224502444 0.00023952445189934224 -0.0011853539617732167" pbc="T T T"
Li       9.25153059       7.25613422       3.11053933        0       0.11870988       0.14703397       0.15520806       0.00487687      -0.02406895       0.01168169
Li      12.55681628       5.34380296       5.79005715        1       0.09404685       0.00149919      -0.09432120       0.00073754      -0.00121791       0.02726626
Li       9.24982346       5.34861165       5.79540517        2       0.14185999       0.12351217      -0.11544244      -0.00008379       0.00091929      -0.00928003
Li      12.54751183       7.26110263       3.11830740        3      -0.01457008       0.20238152       0.09152544       0.01888186      -0.04260990       0.00661248
Li      10.91363545       4.38282709       3.10239938        4       0.16301728      -0.13489167       0.01787267      -0.03314997       0.03782285       0.02346987
Li      10.89910343       8.19870396       5.80963167        5       0.03156508       0.08727394       0.17444328      -0.00325111      -0.01356702      -0.03882027
P        7.27061507       4.19540820       2.96346380        6       0.16854672      -0.06326194      -0.34243506      -0.04702695       0.05065216      -0.01497960
S        7.26571319       6.14031527       2.28474924        7      -0.28039284       0.34748097       0.08814858       0.00262924      -0.05429862       0.02391867
S        8.94941736       3.22231580       2.28615927        8      -0.02282592      -0.26798765       0.30797924      -0.00487655       0.03803945      -0.05689942
S        5.58607992       3.22853028       2.27569403        9      -0.28489537       0.03551770      -0.41918971       0.07993091       0.00933651       0.01427127
S        7.27095775       4.19679693       5.01805777       10       0.11490628      -0.02455657      -0.11582318      -0.01333385      -0.02401318       0.02912134
S       10.90234078       6.29002465       4.45252662       11      -0.21019508      -0.25185870       0.11336651      -0.00814512       0.03410622      -0.00108611
Cl       0.00133331      -0.00017757       0.00292461       12      -0.01977279      -0.20214294       0.13866782       0.00281095      -0.01110084      -0.01527616
13
Lattice="7.26870274 0.0 0.0 3.634351370000001 6.294881225397555 0.0 3.634351370000001 2.0982937417991856 5.934870934989993" Properties=species:S:1:pos:R:3:spacegroup_kinds:I:1:momenta:R:3:forces:R:3 spacegroup="P 1" unit_cell=conventional occupancy="_JSON {\"0\": {\"Li\": 1}, \"1\": {\"Li\": 1}, \"2\": {\"Li\": 1}, \"3\": {\"Li\": 1}, \"4\": {\"Li\": 1}, \"5\": {\"Li\": 1}, \"6\": {\"P\": 1}, \"7\": {\"S\": 1}, \"8\": {\"S\": 1}, \"9\": {\"S\": 1}, \"10\": {\"S\": 1}, \"11\": {\"S\": 1}, \"12\": {\"Cl\": 1}}" energy=-53.359222412109375 free_energy=-53.359222412109375 stress="-0.0002759649942163378 0.00030411253101192415 0.0006662207888439298 0.00030411253101192415 -0.0001342647010460496 0.00046461261808872223 0.0006662207888439298 0.00046461261808872223 -0.0012130666291341186" pbc="T T T"
Li       9.25564024       7.26071311       3.11716579        0       0.06108420       0.16146842       0.20503572      -0.02187643      -0.02359021      -0.00410588
Li      12.55803980       5.34514874       5.78699261        1      -0.03030291       0.03449859      -0.06885838       0.00992733      -0.00318425       0.03900251
Li       9.25557740       5.35280736       5.79294907        2       0.21936506       0.10804223      -0.03896359      -0.03764002      -0.01938211       0.00333391
Li      12.54546847       7.26784485       3.12349922        3      -0.09900325       0.17598248       0.17681956       0.02619036      -0.06451592       0.01149479
Li      10.91984980       4.37956250       3.10319221        4       0.21017629      -0.07704781       0.03158611      -0.05166339       0.04831764       0.02821410
Li      10.90010982       8.20247614       5.81480651        5       0.01762378       0.12003485       0.12343934      -0.00227911      -0.03202730      -0.05554187
P        7.27222915       4.19573017       2.96097288        6       0.28439421       0.17432180      -0.29569370      -0.10355385       0.05618308      -0.00157842
S        7.26459125       6.14268312       2.28526772        7      -0.01442325       0.36782246      -0.01609704       0.01441772      -0.06796074       0.04327879
S        8.94997943       3.22058396       2.28792231        8      -0.01411494      -0.20731269       0.17695874       0.00415675       0.05214743      -0.08461376
S        5.58321734       3.22963557       2.27139439        9      -0.37684190       0.21684027      -0.63069061       0.14228220       0.01818150       0.02970263
S        7.27159562       4.19506975       5.01640884       10       0.14972982      -0.43749653      -0.18946489      -0.00892975      -0.01035072       0.01820388
S       10.90022315       6.28822816       4.45376097       11      -0.39063664      -0.23012536       0.18863465       0.02642447       0.05880794      -0.00442197
Cl       0.00102276      -0.00227353       0.00499986       12      -0.01705046      -0.40702873       0.33729409       0.00254373      -0.01262632      -0.02296871
13
Lattice="7.26870274 0.0 0.0 3.634351370000001 6.294881225397555 0.0 3.634351370000001 2.0982937417991856 5.934870934989993" Properties=species:S:1:pos:R:3:spacegroup_kinds:I:1:momenta:R:3:forces:R:3 spacegroup="P 1" unit_cell=conventional occupancy="_JSON {\"0\": {\"Li\": 1}, \"1\": {\"Li\": 1}, \"2\": {\"Li\": 1}, \"3\": {\"Li\": 1}, \"4\": {\"Li\": 1}, \"5\": {\"Li\": 1}, \"6\": {\"P\": 1}, \"7\": {\"S\": 1}, \"8\": {\"S\": 1}, \"9\": {\"S\": 1}, \"10\": {\"S\": 1}, \"11\": {\"S\": 1}, \"12\": {\"Cl\": 1}}" energy=-53.355613708496094 free_energy=-53.355613708496094 stress="-0.00013777331332676113 0.0004892796277999878 0.0010112186428159475 0.0004892796277999878 7.529465074185282e-05 0.0006030200165696442 0.0010112186428159475 0.0006030200165696442 -0.0013465918600559235" pbc="T T T"
Li       9.25727769       7.26672934       3.12592481        0       0.04027641       0.16813354       0.22324426      -0.04658899      -0.02278373      -0.01644812
Li      12.55989202       5.34651138       5.78702180        1       0.16995530       0.05154147       0.05978580       0.01498550      -0.00229042       0.03873449
Li       9.26117130       5.35485389       5.79136974        2       0.13819755       0.00466499      -0.03118210      -0.06867459      -0.03678489       0.01247917
Li      12.54181344       7.27360446       3.12894157        3      -0.11945410       0.16937618       0.18951289       0.03817579      -0.08310628       0.01120502
Li      10.92697423       4.37471583       3.10489302        4       0.25792589      -0.20147968       0.12267565      -0.07491904       0.06036322       0.03507544
Li      10.90022321       8.20613841       5.81885825        5       0.03853394       0.04829900       0.04751024      -0.00229711      -0.05464018      -0.07061275
P        7.27399950       4.19698367       2.95916608        6       0.24715013       0.24477015      -0.18864537      -0.16137372       0.06703646       0.00064073
S        7.26349158       6.14543959       2.28419745        7      -0.49011203       0.41020107      -0.09793925       0.02389134      -0.08226001       0.07327200
S        8.94898948       3.21911086       2.28942284        8      -0.27098865      -0.32964388       0.18576002       0.03097856       0.05945341      -0.10681825
S        5.58144687       3.23188740       2.26691876        9      -0.03212002       0.38065977      -0.52521146       0.19303259       0.01962003       0.04591095
S        7.27301234       4.19178453       5.01490839       10       0.27448463      -0.43954350      -0.30270638      -0.01028117       0.01391916       0.01302099
S       10.89788802       6.28632441       4.45476426       11      -0.27141383      -0.15453133       0.01685689       0.05946089       0.07505381      -0.00280433
Cl       0.00133941      -0.00457902       0.00698676       12       0.01756477      -0.35244780       0.30033882       0.00360997      -0.01358056      -0.03365540
13
Lattice="7.26870274 0.0 0.0 3.634351370000001 6.294881225397555 0.0 3.634351370000001 2.0982937417991856 5.934870934989993" Properties=species:S:1:pos:R:3:spacegroup_kinds:I:1:momenta:R:3:forces:R:3 spacegroup="P 1" unit_cell=conventional occupancy="_JSON {\"0\": {\"Li\": 1}, \"1\": {\"Li\": 1}, \"2\": {\"Li\": 1}, \"3\": {\"Li\": 1}, \"4\": {\"Li\": 1}, \"5\": {\"Li\": 1}, \"6\": {\"P\": 1}, \"7\": {\"S\": 1}, \"8\": {\"S\": 1}, \"9\": {\"S\": 1}, \"10\": {\"S\": 1}, \"11\": {\"S\": 1}, \"12\": {\"Cl\": 1}}" energy=-53.35067367553711 free_energy=-53.35067367553711 stress="-0.0001792306429706514 0.0007262305589392781 0.0015112912515178323 0.0007262305589392781 0.00010765302431536838 0.0006789176259189844 0.0015112912515178323 0.0006789176259189844 -0.0016442167107015848" pbc="T T T"
Li       9.26007098       7.27335368       3.13302248        0       0.12011662       0.19387683       0.20830012      -0.07249107      -0.02524775      -0.03120368
Li      12.56845956       5.34587109       5.78819978        1       0.36840921      -0.00704020       0.01171220      -0.00611280       0.01638857       0.02777985
Li       9.26855838       5.35516116       5.78886217        2       0.27019006       0.01064529      -0.02007562      -0.09837069      -0.05480962       0.02624283
Li      12.53974625       7.27849854       3.13283553        3      -0.00192183       0.14355643       0.11409548       0.03961053      -0.09987053       0.01593461
Li      10.93796486       4.36734074       3.10929566        4       0.35031837      -0.18911998       0.10109332      -0.11160687       0.07494842       0.04497386
Li      10.90200373       8.20848650       5.82038909        5       0.04399859       0.12363272       0.06327026      -0.00040883      -0.07223701      -0.07505685
P        7.27567609       4.19959441       2.95780721        6       0.18913676       0.34570508      -0.24365719      -0.22094840       0.05924312      -0.01358470
S        7.26028021       6.14792766       2.28342159        7      -0.42862868       0.24087810      -0.14363579       0.04605498      -0.07757403       0.09169514
S        8.94581318       3.21734358       2.29106839        8      -0.47920703      -0.12504070       0.21799209       0.08309672       0.06919958      -0.12849355
S        5.58094493       3.23445863       2.26277866        9      -0.09799641       0.28085511      -0.57654765       0.23099057       0.01480837       0.05347392
S        7.27504849       4.18790812       5.01233431       10       0.25148374      -0.52759819      -0.30500502      -0.00417248       0.03715640       0.03298882
S       10.89555935       6.28597571       4.45525945       11      -0.41924030       0.04187461       0.07284884       0.11165176       0.07027172       0.00120136
Cl       0.00061797      -0.00731281       0.00987781       12      -0.16665912      -0.53222510       0.49960897       0.00270652      -0.01227726      -0.04595153
13
Lattice="7.26870274 0.0 0.0 3.634351370000001 6.294881225397555 0.0 3.634351370000001 2.0982937417991856 5.934870934989993" Properties=species:S:1:pos:R:3:spacegroup_kinds:I:1:momenta:R:3:forces:R:3 spacegroup="P 1" unit_cell=conventional occupancy="_JSON {\"0\": {\"Li\": 1}, \"1\": {\"Li\": 1}, \"2\": {\"Li\": 1}, \"3\": {\"Li\": 1}, \"4\": {\"Li\": 1}, \"5\": {\"Li\": 1}, \"6\": {\"P\": 1}, \"7\": {\"S\": 1}, \"8\": {\"S\": 1}, \"9\": {\"S\": 1}, \"10\": {\"S\": 1}, \"11\": {\"S\": 1}, \"12\": {\"Cl\": 1}}" energy=-53.34244918823242 free_energy=-53.34244918823242 stress="-0.0002965507737826556 0.0010570003651082516 0.002123619196936488 0.0010570003651082516 0.00019862005137838423 0.0007752120727673173 0.002123619196936488 0.0007752120727673173 -0.0018279635114595294" pbc="T T T"
Li       9.26346636       7.28106722       3.14020261        0       0.03374824       0.23456435       0.21075690      -0.09983422      -0.03150206      -0.04517589
Li      12.57973044       5.34380864       5.78901229        1       0.27980480      -0.09311302      -0.02063830      -0.03872613       0.04334403       0.01345350
Li       9.28050759       5.35490571       5.78918821        2       0.34182408      -0.02961282      -0.00105020      -0.13904512      -0.08063115       0.03220314
Li      12.53978423       7.28221334       3.13920650        3       0.02366425       0.03008523       0.17965111       0.03911656      -0.10927076       0.02201580
Li      10.94965250       4.35913935       3.10993138        4       0.37858119      -0.26462432       0.00688812      -0.15285233       0.10745944       0.06518871
Li      10.90321630       8.21343827       5.82192480        5      -0.01021848       0.14596126       0.03535640       0.00193218      -0.09858815      -0.07907321
P        7.27780531       4.20162026       2.95535126        6       0.49083813       0.34592360      -0.33265095      -0.29293746       0.07019378       0.00182246
S        7.25668027       6.15092407       2.28340999        7      -0.59088002       0.47436926       0.03125999       0.07096978      -0.08192068       0.10568921
S        8.94313791       3.21652571       2.29259422        8      -0.25740766      -0.17259505       0.19121442       0.13696955       0.06209252      -0.15443784
S        5.57976432       3.23699891       2.25840029        9      -0.18593025       0.35690356      -0.60392451       0.28208321       0.00770981       0.06233763
S        7.27646662       4.18439386       5.01022156       10       0.11060149      -0.31314819      -0.14894553       0.01533730       0.06132096       0.02972338
S       10.89265272       6.28618530       4.45569237       11      -0.30161718      -0.02744949       0.14947457       0.17629150       0.06028322       0.00446035
Cl      -0.00095889      -0.01153959       0.01281627       12      -0.31300860      -0.68726440       0.30260801       0.00069509      -0.01049099      -0.05820730
13
Lattice="7.26870274 0.0 0.0 3.634351370000001 6.294881225397555 0.0 3.634351370000001 2.0982937417991856 5.934870934989993" Properties=species:S:1:pos:R:3:spacegroup_kinds:I:1:momenta:R:3:forces:R:3 spacegroup="P 1" unit_cell=conventional occupancy="_JSON {\"0\": {\"Li\": 1}, \"1\": {\"Li\": 1}, \"2\": {\"Li\": 1}, \"3\": {\"Li\": 1}, \"4\": {\"Li\": 1}, \"5\": {\"Li\": 1}, \"6\": {\"P\": 1}, \"7\": {\"S\": 1}, \"8\": {\"S\": 1}, \"9\": {\"S\": 1}, \"10\": {\"S\": 1}, \"11\": {\"S\": 1}, \"12\": {\"Cl\": 1}}" energy=-53.33312225341797 free_energy=-53.33312225341797 stress="-0.0004125621635466814 0.0012687796261161566 0.0026795086450874805 0.0012687796261161566 0.00023839558707550168 0.0009417195688001812 0.0026795086450874805 0.0009417195688001812 -0.0018173923017457128" pbc="T T T"
Li       9.26675302       7.28952242       3.14704229        0       0.08706563       0.28767715       0.17442429      -0.12225324      -0.03915212      -0.05357783
Li      12.58737003       5.34120829       5.78813640        1       0.19752742      -0.01665876      -0.01441865      -0.05508747       0.06163983       0.01089336
Li       9.29425264       5.35179339       5.78680194        2       0.40957836      -0.06143183      -0.01208146      -0.18533634      -0.11061147       0.05813640
Li      12.53970687       7.28214116       3.14593606        3       0.02651783      -0.06083675       0.19356615       0.03919465      -0.10271837       0.02502737
Li      10.96068468       4.35140293       3.11134679        4       0.37203440      -0.20340897       0.06507424      -0.19619173       0.13341752       0.08181272
Li      10.90179690       8.21780396       5.82240076        5      -0.04445538       0.10646878      -0.00328749       0.00343846      -0.11707956      -0.07914399
P        7.28021691       4.20584214       2.95301747        6       0.15718467       0.64583882      -0.32880070      -0.35010985       0.03074586       0.03023913
S        7.25236314       6.15431040       2.28372394        7      -0.45250737       0.50875272       0.04464632       0.10214092      -0.06876365       0.10858165
S        8.94036335       3.21449572       2.29254164        8      -0.40994176      -0.40632279      -0.18667420       0.17104831       0.06920834      -0.16485831
S        5.57890760       3.24004535       2.25532579        9      -0.11367819       0.37623113      -0.31670780       0.33533019       0.00764800       0.06299914
S        7.27873876       4.18261042       5.00955915       10       0.39867081      -0.17318743      -0.01285683       0.03017201       0.08310183       0.00451633
S       10.89075058       6.28597332       4.45801117       11      -0.24375148      -0.04223278       0.42521283       0.22730075       0.05698887      -0.01445722
Cl      -0.00293805      -0.01713412       0.01353088       12      -0.38424493      -0.96088930      -0.02809668       0.00035326      -0.00442500      -0.07016879
13
Lattice="7.26870274 0.0 0.0 3.634351370000001 6.294881225397555 0.0 3.634351370000001 2.0982937417991856 5.934870934989993" Properties=species:S:1:pos:R:3:spacegroup_kinds:I:1:momenta:R:3:forces:R:3 spacegroup="P 1" unit_cell=conventional occupancy="_JSON {\"0\": {\"Li\": 1}, \"1\": {\"Li\": 1}, \"2\": {\"Li\": 1}, \"3\": {\"Li\": 1}, \"4\": {\"Li\": 1}, \"5\": {\"Li\": 1}, \"6\": {\"P\": 1}, \"7\": {\"S\": 1}, \"8\": {\"S\": 1}, \"9\": {\"S\": 1}, \"10\": {\"S\": 1}, \"11\": {\"S\": 1}, \"12\": {\"Cl\": 1}}" energy=-53.32425308227539 free_energy=-53.32425308227539 stress="-0.00047155271749943495 0.0013920714845880866 0.0031192570459097624 0.0013920714845880866 0.00018572845146991313 0.0011351145803928375 0.0031192570459097624 0.0011351145803928375 -0.0017757172463461757" pbc="T T T"
Li       9.26779175       7.29931035       3.15386919        0      -0.05098902       0.23489236       0.18041251      -0.13489658      -0.05173027      -0.05271569
Li      12.59193013       5.34342071       5.78724783        1       0.12112928       0.08844762      -0.06156899      -0.04753764       0.06930204       0.01064385
Li       9.30700208       5.34730974       5.78691277        2       0.27643149      -0.17495949      -0.02738313      -0.22284609      -0.13523948       0.07174221
Li      12.53872571       7.27996802       3.15219456        3      -0.05175475      -0.10052832       0.15229774       0.04281221      -0.08606596       0.02185284
Li      10.97222705       4.34641677       3.11391719        4       0.26241636      -0.12200414       0.07800699      -0.24487923       0.15055883       0.09120979
Li      10.89983754       8.22102445       5.82305320        5      -0.10015285       0.06218271       0.00838398       0.00468517      -0.12581104      -0.07799257
P        7.28216546       4.21033777       2.94960032        6       0.20801448       0.57487334      -0.49705553      -0.37577760      -0.02870039       0.08909294
S        7.24897956       6.15748372       2.28525394        7      -0.52411793       0.34699175       0.24954714       0.12503384      -0.04338266       0.09616484
S        8.93756181       3.21174358       2.29101604        8      -0.16243879      -0.31769277      -0.16794977       0.19601935       0.08227845      -0.16791454
S        5.57819337       3.24316232       2.25272997        9       0.01039288       0.58735468      -0.29741933       0.37569645       0.00915226       0.06124613
S        7.28239503       4.18119797       5.00885446       10       0.45849189      -0.26063498      -0.16825751       0.02746070       0.10412338      -0.03098211
S       10.88931107       6.28655073       4.46022294       11      -0.06247520       0.20002915       0.26566630       0.25470597       0.05495931      -0.03113615
Cl      -0.00566017      -0.02429329       0.01448069       12      -0.38494783      -1.11895194       0.28531963      -0.00047664       0.00055544      -0.08121148
13