13
Lattice="7.26870274 0.0 0.0 3.634351370000001 6.294881225397555 0.0 3.634351370000001 2.0982937417991856 5.934870934989993" Properties=species:S:1:pos:R:3:spacegroup_kinds:I:1:forces:R:3 spacegroup="P 1" unit_cell=conventional occupancy="_JSON {\"0\": {\"Li\": 1}, \"1\": {\"Li\": 1}, \"2\": {\"Li\": 1}, \"3\": {\"Li\": 1}, \"4\": {\"Li\": 1}, \"5\": {\"Li\": 1}, \"6\": {\"P\": 1}, \"7\": {\"S\": 1}, \"8\": {\"S\": 1}, \"9\": {\"S\": 1}, \"10\": {\"S\": 1}, \"11\": {\"S\": 1}, \"12\": {\"Cl\": 1}}" energy=-53.3634147644043 free_energy=-53.3634147644043 stress="-0.0007942158845253289 -2.341405433980981e-07 -1.624816690082298e-07 -2.341405433980981e-07 -0.0007939307834021747 -1.0593137744763226e-07 -1.624816690082298e-07 -1.0593137744763226e-07 -0.0007939155329950154" pbc="T T T"
Li       9.25387995       7.24703237       3.10460814        0       0.00422510      -0.00243422       0.00344715
Li      12.55222827       5.34273008       5.79769826        1      -0.00421041       0.00243289      -0.00344083
Li       9.25387995       5.34273008       5.79769826        2       0.00422444       0.00243882      -0.00344650
Li      12.55222827       7.24703237       3.10460814        3      -0.00421187      -0.00243086       0.00344121
Li      10.90305411       4.39057894       3.10460814        4       0.00000262       0.00487599       0.00344833
Li      10.90305411       8.19918351       5.79769826        5       0.00000180      -0.00486322      -0.00344115
P        7.26870274       4.19658748       2.96743547        6       0.00008511       0.00004600       0.00003586
S        7.26870637       6.13578650       2.28182731        7      -0.00001820      -0.01090892       0.00384741
S        8.94810016       3.22699113       2.28182731        8      -0.00945783       0.00543993       0.00384714
S        5.58931258       3.22699113       2.28182731        9       0.00937778       0.00541300       0.00382995
S        7.26870637       4.19658958       5.02426588       10      -0.00001842      -0.00000978      -0.01156923
S       10.90305411       6.29488123       4.45115320       11      -0.00000170      -0.00000021      -0.00000069
Cl       0.00000000       0.00000000       0.00000000       12       0.00000162       0.00000062       0.00000136
