4
Lattice="3.128588 0.0 0.0 -1.5642939988088433 2.709436998432005 0.0 0.0 0.0 5.016955" Properties=species:S:1:pos:R:3:spacegroup_kinds:I:1:forces:R:3 spacegroup="P 1" unit_cell=conventional occupancy="_JSON {\"0\": {\"Al\": 1}, \"1\": {\"Al\": 1}, \"2\": {\"N\": 1}, \"3\": {\"N\": 1}}" energy=-29.673715591430664 free_energy=-29.673715591430664 stress="-0.002225391333922744 -1.4252618711907417e-06 1.3170173396304108e-08 -1.4252618711907417e-06 -0.0022273347713053226 -3.6731901076336726e-08 1.3170173396304108e-08 -3.6731901076336726e-08 -0.005453567020595074" pbc="T T T"
Al       1.56429556       0.90314476       2.50490041        0      -0.00003476       0.00001933       0.00553294
Al      -0.00000156       1.80629224       5.01337791        1       0.00003413      -0.00001817       0.00552376
N        1.56429556       0.90314476       4.41849749        2      -0.00003630       0.00001872      -0.00552987
N       -0.00000156       1.80629224       1.91001999        3       0.00003691      -0.00001979      -0.00552657
