4
Lattice="3.128588 0.0 0.0 -1.5642939988088433 2.709436998432005 0.0 0.0 0.0 5.016955" Properties=species:S:1:pos:R:3:spacegroup_kinds:I:1:momenta:R:3:forces:R:3 spacegroup="P 1" unit_cell=conventional occupancy="_JSON {\"0\": {\"Al\": 1}, \"1\": {\"Al\": 1}, \"2\": {\"N\": 1}, \"3\": {\"N\": 1}}" energy=-29.623743057250977 free_energy=-29.623743057250977 stress="0.004300152417272329 -0.008672677911818027 0.0028820044826716185 -0.008672677911818027 -0.006943667773157358 -0.0044345310889184475 0.0028820044826716185 -0.0044345310889184475 -0.014839190058410168" pbc="T T T"
Al       1.54321205       0.89379622       2.53645985        0      -0.00705386      -0.41529130       0.79445075      -0.25250173       0.39302883      -0.87834501
Al       0.03580900       1.79893952       4.98957804        1       0.09337939      -0.29525068      -0.61192009      -0.16601166       0.14058124       0.62745219
N        1.59619755       0.90645097       4.40111849        2      -0.02189847       1.09350605       0.27120851      -0.08899835      -0.09593779       0.34911221
N       -0.05911265       1.83464208       1.91219260        3      -0.06442705      -0.38296411      -0.45373915       0.50751173      -0.43767223      -0.09821942
