4
Lattice="3.128588 0.0 0.0 -1.5642939988088433 2.709436998432005 0.0 0.0 0.0 5.016955" Properties=species:S:1:pos:R:3:spacegroup_kinds:I:1:momenta:R:3:forces:R:3 spacegroup="P 1" unit_cell=conventional occupancy="_JSON {\"0\": {\"Al\": 1}, \"1\": {\"Al\": 1}, \"2\": {\"N\": 1}, \"3\": {\"N\": 1}}" energy=-29.673717498779297 free_energy=-29.673717498779297 stress="-0.0022252805065363646 -1.3122108839525026e-06 1.2136758265057779e-08 -1.3122108839525026e-06 -0.002227343851700425 -5.125576052478209e-08 1.2136758265057779e-08 -5.125576052478209e-08 -0.005453779827803373" pbc="T T T"
Al       1.56429556       0.90314476       2.50490041        0       0.68448204       0.53670047       0.91071479      -0.00003498       0.00002058       0.00553109
Al      -0.00000156       1.80629224       5.01337791        1       0.31075784       0.39520501      -1.87833745       0.00003502      -0.00002113       0.00552428
N        1.56429556       0.90314476       4.41849749        2      -0.23293981      -0.79739853      -0.40745139      -0.00003685       0.00002189      -0.00553023
N       -0.00000156       1.80629224       1.91001999        3      -0.76230006      -0.13450696       1.37507406       0.00003666      -0.00002139      -0.00552478
4
Lattice="3.128588 0.0 0.0 -1.5642939988088433 2.709436998432005 0.0 0.0 0.0 5.016955" Properties=species:S:1:pos:R:3:spacegroup_kinds:I:1:momenta:R:3:forces:R:3 spacegroup="P 1" unit_cell=conventional occupancy="_JSON {\"0\": {\"Al\": 1}, \"1\": {\"Al\": 1}, \"2\": {\"N\": 1}, \"3\": {\"N\": 1}}" energy=-29.43359375 free_energy=-29.43359375 stress="-0.013773632235825062 -0.01644633524119854 0.01294876541942358 -0.01644633524119854 -0.023968856781721115 0.009969829581677914 0.01294876541942358 0.009969829581677914 -0.01205950416624546" pbc="T T T"
Al       1.60246141       0.92231284       2.54150848        0       0.57498214      -0.13491995       1.02882482      -1.31301236      -0.49033463      -0.87831438
Al       0.00328789       1.81111139       4.94718774        1      -0.44725803       0.00118069      -1.07867320      -0.30154204      -0.59423339       1.18011737
N        1.53678587       0.85870780       4.38099594        2       0.14052034      -0.46066736       0.20203864       0.28490800       0.67984581       1.25553703
N       -0.05228246       1.80432670       2.00436659        3      -0.26824448       0.59440659      -0.15219028       1.32964623       0.40472189      -1.55733991
4
Lattice="3.128588 0.0 0.0 -1.5642939988088433 2.709436998432005 0.0 0.0 0.0 5.016955" Properties=species:S:1:pos:R:3:spacegroup_kinds:I:1:momenta:R:3:forces:R:3 spacegroup="P 1" unit_cell=conventional occupancy="_JSON {\"0\": {\"Al\": 1}, \"1\": {\"Al\": 1}, \"2\": {\"N\": 1}, \"3\": {\"N\": 1}}" energy=-29.5672550201416 free_energy=-29.5672550201416 stress="0.012915825471282005 0.0017024347325786948 0.0035793757997453213 0.0017024347325786948 -0.02585718221962452 -0.005369178950786591 0.0035793757997453213 -0.005369178950786591 -0.011435327120125294" pbc="T T T"
Al       1.59598186       0.90138485       2.55101265        0      -0.85004002      -0.64755184      -0.41676289      -0.33522850       0.74370337      -1.26921415
Al      -0.01311799       1.79082858       4.96769657        1      -0.24557021      -0.74327790       1.65595776      -0.18280379      -0.17026666       1.21499765
N        1.52960408       0.86779352       4.41996341        2       0.16413074       0.60763581       0.63654575       0.31887776       0.39321303      -0.09056865
N       -0.00060096       1.87475189       1.90756520        3       0.93147941       0.78319389      -1.87574059       0.19915459      -0.96664977       0.14478524
4
Lattice="3.128588 0.0 0.0 -1.5642939988088433 2.709436998432005 0.0 0.0 0.0 5.016955" Properties=species:S:1:pos:R:3:spacegroup_kinds:I:1:momenta:R:3:forces:R:3 spacegroup="P 1" unit_cell=conventional occupancy="_JSON {\"0\": {\"Al\": 1}, \"1\": {\"Al\": 1}, \"2\": {\"N\": 1}, \"3\": {\"N\": 1}}" energy=-29.406274795532227 free_energy=-29.406274795532227 stress="0.01068879570811987 0.016498122364282608 -0.008164015598595142 0.016498122364282608 -0.00942326057702303 -0.0155539745464921 -0.008164015598595142 -0.0155539745464921 -0.061254095286130905" pbc="T T T"
Al       1.53423928       0.87298459       2.51007453        0      -1.60925399       0.09619184      -1.03262315       0.74608839       1.00298512       0.03482449
Al      -0.01349002       1.78470222       5.05709165        1       0.21561233      -0.04339796       1.72443279       0.02271266       0.40732828      -1.66436970
N        1.55208973       0.92225132       4.42203508        2       0.38659388       0.63935804      -0.93002914       0.04495705      -0.39009622      -0.56986117
N        0.09667396       1.88681819       1.81230438        3       1.00704774      -0.69215197       0.23821958      -0.81375813      -1.02021694       2.19940615
4
Lattice="3.128588 0.0 0.0 -1.5642939988088433 2.709436998432005 0.0 0.0 0.0 5.016955" Properties=species:S:1:pos:R:3:spacegroup_kinds:I:1:momenta:R:3:forces:R:3 spacegroup="P 1" unit_cell=conventional occupancy="_JSON {\"0\": {\"Al\": 1}, \"1\": {\"Al\": 1}, \"2\": {\"N\": 1}, \"3\": {\"N\": 1}}" energy=-29.201902389526367 free_energy=-29.201902389526367 stress="-0.026440737769007683 0.038155220448970795 -0.031382568180561066 0.038155220448970795 -0.004877423867583275 0.0015437479596585035 -0.031382568180561066 0.0015437479596585035 -0.05181986466050148" pbc="T T T"
Al       1.49382401       0.87740190       2.48150489        0      -0.08661683      -0.02748813       0.25595525       2.48428082      -0.46186337       1.22611594
Al      -0.02076736       1.79337851       5.08843296        1       0.00716704       0.60209051      -1.27068259       0.64723277       0.57433391      -2.36004066
N        1.60157222       0.96971685       4.33361321        2       0.49437298       0.53651044      -0.17473353      -0.53882658      -0.70145261       1.74608898
N        0.13924907       1.81421457       1.89535166        3      -0.41492327      -1.11111281       1.18946086      -2.59268689       0.58898211      -0.61216462
4
Lattice="3.128588 0.0 0.0 -1.5642939988088433 2.709436998432005 0.0 0.0 0.0 5.016955" Properties=species:S:1:pos:R:3:spacegroup_kinds:I:1:momenta:R:3:forces:R:3 spacegroup="P 1" unit_cell=conventional occupancy="_JSON {\"0\": {\"Al\": 1}, \"1\": {\"Al\": 1}, \"2\": {\"N\": 1}, \"3\": {\"N\": 1}}" energy=-29.574628829956055 free_energy=-29.574628829956055 stress="-0.023617951199412346 -0.01432131975889206 -0.011127973906695843 -0.01432131975889206 0.015030012466013432 -0.002854645252227783 -0.011127973906695843 -0.002854645252227783 -0.01444015372544527" pbc="T T T"
Al       1.53421958       0.88369267       2.53780581        0       1.55944018       0.36820897       1.55971022       0.29264572      -0.24000584      -0.91367674
Al      -0.00048007       1.82107763       4.98837343        1       1.01688541       0.86374293      -2.47525466       0.94369531       0.52251685       0.78486490
N        1.63583968       0.96584652       4.40663185        2      -0.31021865      -0.52489285       1.27117389      -1.15103757      -0.78907228       0.05687891
N       -0.01177516       1.75252285       1.90648729        3      -2.26610694      -0.70705908      -0.35562952      -0.08530330       0.50656128       0.07193293
4
Lattice="3.128588 0.0 0.0 -1.5642939988088433 2.709436998432005 0.0 0.0 0.0 5.016955" Properties=species:S:1:pos:R:3:spacegroup_kinds:I:1:momenta:R:3:forces:R:3 spacegroup="P 1" unit_cell=conventional occupancy="_JSON {\"0\": {\"Al\": 1}, \"1\": {\"Al\": 1}, \"2\": {\"N\": 1}, \"3\": {\"N\": 1}}" energy=-29.372068405151367 free_energy=-29.372068405151367 stress="-0.005629662424325943 -0.01871960423886776 0.0158494021743536 -0.01871960423886776 -0.03227272629737854 0.017212221398949623 0.0158494021743536 0.017212221398949623 -0.007298188749700785" pbc="T T T"
Al       1.57072834       0.88046442       2.56331975        0      -0.00039098      -0.37629448      -0.57844112      -1.34386361      -0.44065854      -1.50707650
Al       0.05055070       1.86456080       4.94968570        1       0.52727005       0.77034179       1.04960243      -0.49128795      -1.36434031       1.82584798
N        1.58204802       0.88176661       4.44992391        2      -0.27832242      -1.02263403      -0.55459321       0.15003453       1.16376328      -0.85894883
N       -0.12661087       1.75915455       1.88869866        3      -0.24855667       0.62858672       0.08343184       1.68511677       0.64123559       0.54017746
4
Lattice="3.128588 0.0 0.0 -1.5642939988088433 2.709436998432005 0.0 0.0 0.0 5.016955" Properties=species:S:1:pos:R:3:spacegroup_kinds:I:1:momenta:R:3:forces:R:3 spacegroup="P 1" unit_cell=conventional occupancy="_JSON {\"0\": {\"Al\": 1}, \"1\": {\"Al\": 1}, \"2\": {\"N\": 1}, \"3\": {\"N\": 1}}" energy=-29.596923828125 free_energy=-29.596923828125 stress="0.015976540744304657 -0.004506102297455072 0.006018703803420067 -0.004506102297455072 -0.025499192997813225 -0.004597080871462822 0.006018703803420067 -0.004597080871462822 -0.01001404132694006" pbc="T T T"
Al       1.53284810       0.86390066       2.51395074        0      -1.59464493      -0.16469704      -1.74991395      -0.27820784       0.89915711      -0.15420400
Al       0.06317841       1.83227866       5.00948382        1       0.38440036      -1.80666576       1.59450011      -0.58708668      -0.41271710       0.16725051
N        1.58572478       0.89623785       4.41422574        2       0.14193130       1.12964914      -0.09119171       0.25704223       0.38076812       0.00228148
N       -0.08152114       1.83862418       1.90381446        3       1.06831324       0.84171365       0.24660547       0.60825235      -0.86720806      -0.01532764
4
Lattice="3.128588 0.0 0.0 -1.5642939988088433 2.709436998432005 0.0 0.0 0.0 5.016955" Properties=species:S:1:pos:R:3:spacegroup_kinds:I:1:momenta:R:3:forces:R:3 spacegroup="P 1" unit_cell=conventional occupancy="_JSON {\"0\": {\"Al\": 1}, \"1\": {\"Al\": 1}, \"2\": {\"N\": 1}, \"3\": {\"N\": 1}}" energy=-29.462554931640625 free_energy=-29.462554931640625 stress="-0.0056969583965837955 0.010849479585886002 -0.003906659781932831 0.010849479585886002 -0.019133830443024635 -0.012703239917755127 -0.003906659781932831 -0.012703239917755127 -0.011871415190398693" pbc="T T T"
Al       1.48347332       0.88264393       2.44527926        0      -0.30454613       1.01149487      -0.60004501       0.88393110       0.95768440       1.70777082
Al       0.06164410       1.77681262       5.07306074        1      -0.86715230      -0.75617408       0.43048866      -0.30080694       0.71655214      -1.72280025
N        1.61717708       0.94947181       4.40498426        2       0.38645828       0.04830110       0.18623313      -0.07233901      -0.67485952       0.48910636
N       -0.01486936       1.85626149       1.92266700        3       0.78524010      -0.30362191      -0.01667690      -0.51078510      -0.99937701      -0.47407639
4
Lattice="3.128588 0.0 0.0 -1.5642939988088433 2.709436998432005 0.0 0.0 0.0 5.016955" Properties=species:S:1:pos:R:3:spacegroup_kinds:I:1:momenta:R:3:forces:R:3 spacegroup="P 1" unit_cell=conventional occupancy="_JSON {\"0\": {\"Al\": 1}, \"1\": {\"Al\": 1}, \"2\": {\"N\": 1}, \"3\": {\"N\": 1}}" energy=-29.51875114440918 free_energy=-29.51875114440918 stress="-0.02337070368230343 0.00654015364125371 -0.0160981472581625 0.00654015364125371 0.006697427481412888 -0.00048238280578516424 -0.0160981472581625 -0.00048238280578516424 -0.022161250934004784" pbc="T T T"
Al       1.50607636       0.94974317       2.46463696        0       1.15921280       0.62635255       1.50690021       1.24247444      -0.60704517       1.15697479
Al       0.01335471       1.75088041       5.06242873        1      -0.91112046       0.14825206      -0.88962729       0.51474309       0.69610620      -1.43089044
N        1.62637955       0.90489620       4.42127857        2      -0.14223502      -0.64065004       0.21498393      -0.71771449      -0.51824212      -0.07984851
N        0.02538014       1.82158365       1.88963025        3      -0.10585735      -0.13395458      -0.83225691      -1.03950298       0.42918125       0.35376409
4
Lattice="3.128588 0.0 0.0 -1.5642939988088433 2.709436998432005 0.0 0.0 0.0 5.016955" Properties=species:S:1:pos:R:3:spacegroup_kinds:I:1:momenta:R:3:forces:R:3 spacegroup="P 1" unit_cell=conventional occupancy="_JSON {\"0\": {\"Al\": 1}, \"1\": {\"Al\": 1}, \"2\": {\"N\": 1}, \"3\": {\"N\": 1}}" energy=-29.605009078979492 free_energy=-29.605009078979492 stress="0.0015958037693053484 -0.006785975303500891 -0.0030952701345086098 -0.006785975303500891 0.0017806505784392357 0.0017242440953850746 -0.0030952701345086098 0.0017242440953850746 -0.023114027455449104" pbc="T T T"
Al       1.56693922       0.93861030       2.54470912        0       1.44875355      -0.98943791       1.48437393      -0.01659220      -0.29131627      -1.20301914
Al      -0.01304571       1.78057345       4.99752448        1       0.01689771       1.11024964      -1.70730009       0.38438487       0.02358346       0.50762802
N        1.58384204       0.87104973       4.42155573        2      -0.67927430      -0.02704939      -0.19037188      -0.39236730       0.15177843      -0.39793032
N        0.00122216       1.81989276       1.85992053        3      -0.78637698      -0.09376233       0.41329795       0.02457466       0.11595438       1.09332156
4
Lattice="3.128588 0.0 0.0 -1.5642939988088433 2.709436998432005 0.0 0.0 0.0 5.016955" Properties=species:S:1:pos:R:3:spacegroup_kinds:I:1:momenta:R:3:forces:R:3 spacegroup="P 1" unit_cell=conventional occupancy="_JSON {\"0\": {\"Al\": 1}, \"1\": {\"Al\": 1}, \"2\": {\"N\": 1}, \"3\": {\"N\": 1}}" energy=-29.470203399658203 free_energy=-29.470203399658203 stress="0.0032032490707933903 -0.017801547423005104 0.011838364414870739 -0.017801547423005104 -0.04134904593229294 0.007359862327575684 0.011838364414870739 0.007359862327575684 -0.005160155706107616" pbc="T T T"
Al       1.62755628       0.89950079       2.54516753        0       1.04970810      -0.99981898      -0.80202971      -1.41065228       0.15933120      -0.91778624
Al      -0.00757059       1.81703572       4.95606283        1      -0.03757966       0.11959903      -0.16512725      -0.26242486      -0.84351289       1.41445279
N        1.52756235       0.85151205       4.42065482        2      -0.42752203       0.29023003      -0.07965728       0.31765687       0.98894417      -0.00115123
N       -0.06966668       1.84442108       1.93994535        3      -0.58460645       0.58998989       1.04681420       1.35542059      -0.30476245      -0.49551576
4
Lattice="3.128588 0.0 0.0 -1.5642939988088433 2.709436998432005 0.0 0.0 0.0 5.016955" Properties=species:S:1:pos:R:3:spacegroup_kinds:I:1:momenta:R:3:forces:R:3 spacegroup="P 1" unit_cell=conventional occupancy="_JSON {\"0\": {\"Al\": 1}, \"1\": {\"Al\": 1}, \"2\": {\"N\": 1}, \"3\": {\"N\": 1}}" energy=-29.45298957824707 free_energy=-29.45298957824707 stress="-0.013225274160504341 -0.02374998666346073 0.007911501452326775 -0.02374998666346073 -0.04793180525302887 -0.007333221845328808 0.007911501452326775 -0.007333221845328808 0.02863297052681446" pbc="T T T"
Al       1.63184039       0.85684026       2.46693547        0      -0.97589062      -0.55899628      -1.34838440      -1.39010704       1.11026251       1.17303467
Al      -0.02377745       1.82170283       4.98999600        1      -0.28018820       0.45883534       1.28013582      -0.08532426       0.08283316       0.34697104
N        1.52792698       0.92957746       4.44479005        2       0.11446468       0.97873216       0.08012593       0.22036159      -0.17398705       0.05598892
N       -0.04718873       1.83921504       2.00086009        3       1.14161405      -0.87857125      -0.01187730       1.25506961      -1.01910877      -1.57599473
4
Lattice="3.128588 0.0 0.0 -1.5642939988088433 2.709436998432005 0.0 0.0 0.0 5.016955" Properties=species:S:1:pos:R:3:spacegroup_kinds:I:1:momenta:R:3:forces:R:3 spacegroup="P 1" unit_cell=conventional occupancy="_JSON {\"0\": {\"Al\": 1}, \"1\": {\"Al\": 1}, \"2\": {\"N\": 1}, \"3\": {\"N\": 1}}" energy=-29.53631591796875 free_energy=-29.53631591796875 stress="-0.019857631996273994 0.013828937895596027 -0.005717361345887184 0.013828937895596027 -0.00316401245072484 -0.0016709927003830671 -0.005717361345887184 -0.0016709927003830671 -0.0062606455758214" pbc="T T T"
Al       1.56291506       0.86348345       2.43836893        0      -1.44558875       0.38889182       0.34074968       0.67286050       0.11609317       1.45909607
Al      -0.01834142       1.83613137       5.05736572        1       0.19731521      -0.00921598       1.04742122       0.06595142       0.15003580      -1.19267440
N        1.54726697       0.95741146       4.47045643        2      -0.01024011       0.05685094       0.14844034       0.09761500      -0.44420910      -0.65174687
N        0.05576965       1.77068665       1.90062726        3       1.25851359      -0.43652675      -1.53661122      -0.83642709       0.17808023       0.38532525
4
Lattice="3.128588 0.0 0.0 -1.5642939988088433 2.709436998432005 0.0 0.0 0.0 5.016955" Properties=species:S:1:pos:R:3:spacegroup_kinds:I:1:momenta:R:3:forces:R:3 spacegroup="P 1" unit_cell=conventional occupancy="_JSON {\"0\": {\"Al\": 1}, \"1\": {\"Al\": 1}, \"2\": {\"N\": 1}, \"3\": {\"N\": 1}}" energy=-29.531002044677734 free_energy=-29.531002044677734 stress="-0.018294207751750946 0.015707505866885185 -0.011607778258621693 0.015707505866885185 0.0031483203638345003 0.004605639725923538 -0.011607778258621693 0.004605639725923538 -0.01725868508219719" pbc="T T T"
Al       1.54701071       0.87273545       2.46070914        0       0.71855716      -0.11584330       0.49435476       1.07476556      -0.28505614       1.06925344
Al      -0.01761627       1.84389393       5.05391119        1       0.19346404       0.17720421      -0.69190280       0.23187634      -0.07941400      -1.16825151
N        1.56395351       0.94331125       4.45961399        2       0.32487450      -0.12409402      -0.51346230      -0.11546971      -0.20503911      -0.72920197
N        0.06831353       1.75176760       1.87546338        3      -1.23689576       0.06273316       0.71101033      -1.19117212       0.56950915       0.82819998
4
Lattice="3.128588 0.0 0.0 -1.5642939988088433 2.709436998432005 0.0 0.0 0.0 5.016955" Properties=species:S:1:pos:R:3:spacegroup_kinds:I:1:momenta:R:3:forces:R:3 spacegroup="P 1" unit_cell=conventional occupancy="_JSON {\"0\": {\"Al\": 1}, \"1\": {\"Al\": 1}, \"2\": {\"N\": 1}, \"3\": {\"N\": 1}}" energy=-29.61321449279785 free_energy=-29.61321449279785 stress="-0.008381773717701435 -0.004276659339666367 0.005492664407938719 -0.004276659339666367 -0.013937071897089481 0.0014804783277213573 0.005492664407938719 0.0014804783277213573 0.012475378811359406" pbc="T T T"
Al       1.57767906       0.87033378       2.48321568        0       0.42145934      -0.10086075       0.75449466      -0.50598532       0.14215332       0.64866954
Al       0.00878681       1.84488739       5.00616573        1       0.94842540       0.04829671      -0.67234724      -0.28190911      -0.37569767       0.05944297
N        1.54733737       0.91884315       4.41695257        2      -0.50233598      -0.06173858      -0.86681681       0.26756576       0.16352499       0.34765962
N       -0.02491943       1.77881437       1.96659668        3      -0.86754880       0.11430269       0.78466938       0.52032876       0.07001939      -1.05577254
4
Lattice="3.128588 0.0 0.0 -1.5642939988088433 2.709436998432005 0.0 0.0 0.0 5.016955" Properties=species:S:1:pos:R:3:spacegroup_kinds:I:1:momenta:R:3:forces:R:3 spacegroup="P 1" unit_cell=conventional occupancy="_JSON {\"0\": {\"Al\": 1}, \"1\": {\"Al\": 1}, \"2\": {\"N\": 1}, \"3\": {\"N\": 1}}" energy=-29.55784034729004 free_energy=-29.55784034729004 stress="-0.01636367291212082 -0.0029476480558514595 0.012903842143714428 -0.0029476480558514595 -0.006207761820405722 0.0015376219525933266 0.012903842143714428 0.0015376219525933266 -0.0027147987857460976" pbc="T T T"
Al       1.59068814       0.88023426       2.52274591        0      -0.41625543       0.17886985       0.33160804      -0.90883768      -0.14031188      -0.36868185
Al       0.01872292       1.83477378       4.97781987        1       0.14973971      -0.20763024      -0.17578507      -0.72829807      -0.10046391       0.72652835
N        1.52039170       0.92489996       4.39464371        2       0.19754369       0.25939853       0.47781804       0.72475904      -0.09604964       0.71574414
N       -0.04216871       1.77342030       1.96745701        3       0.06897204      -0.23063812      -0.63364096       0.91237664       0.33682519      -1.07359064
4
Lattice="3.128588 0.0 0.0 -1.5642939988088433 2.709436998432005 0.0 0.0 0.0 5.016955" Properties=species:S:1:pos:R:3:spacegroup_kinds:I:1:momenta:R:3:forces:R:3 spacegroup="P 1" unit_cell=conventional occupancy="_JSON {\"0\": {\"Al\": 1}, \"1\": {\"Al\": 1}, \"2\": {\"N\": 1}, \"3\": {\"N\": 1}}" energy=-29.621112823486328 free_energy=-29.621112823486328 stress="-0.021500572562217712 0.005276385694742203 -0.0032673170790076256 0.005276385694742203 0.010657758451998234 0.0019248570315539837 -0.0032673170790076256 0.0019248570315539837 -0.0015898513374850154" pbc="T T T"
Al       1.54767651       0.89587758       2.50832859        0      -0.85810072       0.46896538      -1.00003221       0.39160132      -0.39028943      -0.15032510
Al       0.00665802       1.82067517       5.00342494        1      -0.72966952      -0.11082619       1.46536928      -0.00950042       0.22696936       0.34863046
N        1.57185930       0.94293295       4.45440723        2       0.62349868      -0.37686550       0.64593240      -0.01969623      -0.43335241      -0.83890206
N        0.01256026       1.75229426       1.88600532        3       0.96427159       0.01872635      -1.11126943      -0.36240470       0.59667259       0.64059693
4
Lattice="3.128588 0.0 0.0 -1.5642939988088433 2.709436998432005 0.0 0.0 0.0 5.016955" Properties=species:S:1:pos:R:3:spacegroup_kinds:I:1:momenta:R:3:forces:R:3 spacegroup="P 1" unit_cell=conventional occupancy="_JSON {\"0\": {\"Al\": 1}, \"1\": {\"Al\": 1}, \"2\": {\"N\": 1}, \"3\": {\"N\": 1}}" energy=-29.520856857299805 free_energy=-29.520856857299805 stress="-0.014047541655600071 0.011820989660918713 -0.01425560750067234 0.011820989660918713 -0.005614706315100193 0.009361487813293934 -0.01425560750067234 0.009361487813293934 -0.01957099512219429" pbc="T T T"
Al       1.52999424       0.91403915       2.46474566        0       0.09545043      -0.23101195      -1.18071418       1.21875429      -0.63577104       0.99290091
Al      -0.00890655       1.82180735       5.05208971        1       0.31216898      -0.10747497       0.45537753       0.39472705      -0.38378504      -1.12710369
N        1.59437711       0.88605552       4.45928986        2      -0.04799009      -0.53350284      -0.20523345      -0.40810567       0.35578969      -0.79021549
N        0.05384453       1.77207219       1.87145000        3      -0.35962934       0.87198979       0.93057011      -1.20537567       0.66376615       0.92441833
4
Lattice="3.128588 0.0 0.0 -1.5642939988088433 2.709436998432005 0.0 0.0 0.0 5.016955" Properties=species:S:1:pos:R:3:spacegroup_kinds:I:1:momenta:R:3:forces:R:3 spacegroup="P 1" unit_cell=conventional occupancy="_JSON {\"0\": {\"Al\": 1}, \"1\": {\"Al\": 1}, \"2\": {\"N\": 1}, \"3\": {\"N\": 1}}" energy=-29.618785858154297 free_energy=-29.618785858154297 stress="0.010117852129042149 -0.0018220110796391964 -0.001873005530796945 -0.0018220110796391964 -0.024782918393611908 0.004591124597936869 -0.001873005530796945 0.004591124597936869 2.6500745661905967e-05" pbc="T T T"
Al       1.53818030       0.90928016       2.47247627        0       0.23228647      -0.27447295       1.41733434       0.21200821       0.18702102       0.85530758
Al       0.01802690       1.81430743       5.03506519        1       0.60360840      -0.42930303      -1.11140902       0.03760327      -0.69444269      -0.55142528
N        1.59518014       0.85128049       4.42414644        2       0.09084588       0.02420731      -0.77345454      -0.19470435       0.84070641       0.01228072
N       -0.01452982       1.83034436       1.92467361        3      -0.92674076       0.67956869       0.46752923      -0.05490724      -0.33328483      -0.31616300
4
Lattice="3.128588 0.0 0.0 -1.5642939988088433 2.709436998432005 0.0 0.0 0.0 5.016955" Properties=species:S:1:pos:R:3:spacegroup_kinds:I:1:momenta:R:3:forces:R:3 spacegroup="P 1" unit_cell=conventional occupancy="_JSON {\"0\": {\"Al\": 1}, \"1\": {\"Al\": 1}, \"2\": {\"N\": 1}, \"3\": {\"N\": 1}}" energy=-29.623743057250977 free_energy=-29.623743057250977 stress="0.004300152417272329 -0.008672677911818027 0.0028820044826716185 -0.008672677911818027 -0.006943667773157358 -0.0044345310889184475 0.0028820044826716185 -0.0044345310889184475 -0.014839190058410168" pbc="T T T"
Al       1.54321205       0.89379622       2.53645985        0      -0.00705386      -0.41529130       0.79445075      -0.25250173       0.39302883      -0.87834501
Al       0.03580900       1.79893952       4.98957804        1       0.09337939      -0.29525068      -0.61192009      -0.16601166       0.14058124       0.62745219
N        1.59619755       0.90645097       4.40111849        2      -0.02189847       1.09350605       0.27120851      -0.08899835      -0.09593779       0.34911221
N       -0.05911265       1.83464208       1.91219260        3      -0.06442705      -0.38296411      -0.45373915       0.50751173      -0.43767223      -0.09821942
