4
Lattice="3.128588 0.0 0.0 -1.5642939988088433 2.709436998432005 0.0 0.0 0.0 5.016955" Properties=species:S:1:pos:R:3:spacegroup_kinds:I:1:forces:R:3 spacegroup="P 1" unit_cell=conventional occupancy="_JSON {\"0\": {\"Al\": 1}, \"1\": {\"Al\": 1}, \"2\": {\"N\": 1}, \"3\": {\"N\": 1}}" energy=-29.673717498779297 free_energy=-29.673717498779297 stress="-0.0022252805065363646 -1.3122108839525026e-06 1.2136758265057779e-08 -1.3122108839525026e-06 -0.002227343851700425 -5.125576052478209e-08 1.2136758265057779e-08 -5.125576052478209e-08 -0.005453779827803373" pbc="T T T"
Al       1.56429556       0.90314476       2.50490041        0      -0.00003498       0.00002058       0.00553109
Al      -0.00000156       1.80629224       5.01337791        1       0.00003502      -0.00002113       0.00552428
N        1.56429556       0.90314476       4.41849749        2      -0.00003685       0.00002189      -0.00553023
N       -0.00000156       1.80629224       1.91001999        3       0.00003666      -0.00002139      -0.00552478
