4
Lattice="3.128588 0.0 0.0 -1.5642939988088433 2.709436998432005 0.0 0.0 0.0 5.016955" Properties=species:S:1:pos:R:3:spacegroup_kinds:I:1:momenta:R:3:forces:R:3 spacegroup="P 1" unit_cell=conventional occupancy="_JSON {\"0\": {\"Al\": 1}, \"1\": {\"Al\": 1}, \"2\": {\"N\": 1}, \"3\": {\"N\": 1}}" energy=-29.623743057250977 free_energy=-29.623743057250977 stress="0.00430032704025507 -0.00867265835404396 0.002881841268390417 -0.00867265835404396 -0.006943854037672281 -0.004434546455740929 0.002881841268390417 -0.004434546455740929 -0.01483908947557211" pbc="T T T"
Al       1.54321203       0.89379623       2.53645985        0      -0.00705474      -0.41529124       0.79444962      -0.25249887       0.39303041      -0.87834406
Al       0.03580901       1.79893953       4.98957808        1       0.09337969      -0.29525061      -0.61191909      -0.16600910       0.14057861       0.62745190
N        1.59619756       0.90645093       4.40111848        2      -0.02189829       1.09350585       0.27120802      -0.08899990      -0.09593534       0.34911114
N       -0.05911259       1.83464210       1.91219260        3      -0.06442663      -0.38296400      -0.45373850       0.50750774      -0.43767372      -0.09821907
