4
Lattice="3.128588 0.0 0.0 -1.5642939988088433 2.709436998432005 0.0 0.0 0.0 5.016955" Properties=species:S:1:pos:R:3:spacegroup_kinds:I:1:momenta:R:3:forces:R:3 spacegroup="P 1" unit_cell=conventional occupancy="_JSON {\"0\": {\"Al\": 1}, \"1\": {\"Al\": 1}, \"2\": {\"N\": 1}, \"3\": {\"N\": 1}}" energy=-29.673715591430664 free_energy=-29.673715591430664 stress="-0.0022254041396081448 -1.4324559742817655e-06 -1.4873883458221826e-08 -1.4324559742817655e-06 -0.002227376215159893 -8.102743009885671e-08 -1.4873883458221826e-08 -8.102743009885671e-08 -0.0054536499083042145" pbc="T T T"
Al       1.56429556       0.90314476       2.50490041        0       0.68448204       0.53670047       0.91071479      -0.00003501       0.00001990       0.00553105
Al      -0.00000156       1.80629224       5.01337791        1       0.31075784       0.39520501      -1.87833745       0.00003530      -0.00001729       0.00552477
N        1.56429556       0.90314476       4.41849749        2      -0.23293981      -0.79739853      -0.40745139      -0.00003739       0.00001819      -0.00553010
N       -0.00000156       1.80629224       1.91001999        3      -0.76230006      -0.13450696       1.37507406       0.00003695      -0.00002064      -0.00552546
4
Lattice="3.128588 0.0 0.0 -1.5642939988088433 2.709436998432005 0.0 0.0 0.0 5.016955" Properties=species:S:1:pos:R:3:spacegroup_kinds:I:1:momenta:R:3:forces:R:3 spacegroup="P 1" unit_cell=conventional occupancy="_JSON {\"0\": {\"Al\": 1}, \"1\": {\"Al\": 1}, \"2\": {\"N\": 1}, \"3\": {\"N\": 1}}" energy=-29.43359375 free_energy=-29.43359375 stress="-0.013773559592664242 -0.01644640602171421 0.012948793359100819 -0.01644640602171421 -0.023968812078237534 0.009969770908355713 0.012948793359100819 0.009969770908355713 -0.012059303000569344" pbc="T T T"
Al       1.60246141       0.92231283       2.54150849        0       0.57498202      -0.13491995       1.02882494      -1.31301451      -0.49033415      -0.87831247
Al       0.00328788       1.81111139       4.94718774        1      -0.44725810       0.00118037      -1.07867330      -0.30154157      -0.59423310       1.18011904
N        1.53678588       0.85870780       4.38099595        2       0.14052040      -0.46066710       0.20203876       0.28490716       0.67984581       1.25553608
N       -0.05228245       1.80432671       2.00436659        3      -0.26824435       0.59440667      -0.15219046       1.32964885       0.40472132      -1.55734253
4
Lattice="3.128588 0.0 0.0 -1.5642939988088433 2.709436998432005 0.0 0.0 0.0 5.016955" Properties=species:S:1:pos:R:3:spacegroup_kinds:I:1:momenta:R:3:forces:R:3 spacegroup="P 1" unit_cell=conventional occupancy="_JSON {\"0\": {\"Al\": 1}, \"1\": {\"Al\": 1}, \"2\": {\"N\": 1}, \"3\": {\"N\": 1}}" energy=-29.5672550201416 free_energy=-29.5672550201416 stress="0.01291589718312025 0.0017025881679728627 0.0035793667193502188 0.0017025881679728627 -0.02585708722472191 -0.005369124934077263 0.0035793667193502188 -0.005369124934077263 -0.011435232125222683" pbc="T T T"
Al       1.59598186       0.90138485       2.55101266        0      -0.85003970      -0.64755153      -0.41676303      -0.33522722       0.74370319      -1.26921225
Al      -0.01311800       1.79082858       4.96769657        1      -0.24557043      -0.74327781       1.65595790      -0.18280362      -0.17026836       1.21499729
N        1.52960409       0.86779352       4.41996341        2       0.16413090       0.60763573       0.63654565       0.31887776       0.39321426      -0.09056954
N       -0.00060095       1.87475190       1.90756519        3       0.93147925       0.78319357      -1.87574045       0.19915313      -0.96664906       0.14478453
4
Lattice="3.128588 0.0 0.0 -1.5642939988088433 2.709436998432005 0.0 0.0 0.0 5.016955" Properties=species:S:1:pos:R:3:spacegroup_kinds:I:1:momenta:R:3:forces:R:3 spacegroup="P 1" unit_cell=conventional occupancy="_JSON {\"0\": {\"Al\": 1}, \"1\": {\"Al\": 1}, \"2\": {\"N\": 1}, \"3\": {\"N\": 1}}" energy=-29.406274795532227 free_energy=-29.406274795532227 stress="0.010688862763345242 0.01649819128215313 -0.00816398486495018 0.01649819128215313 -0.009423285722732544 -0.015553999692201614 -0.00816398486495018 -0.015553999692201614 -0.061254050582647324" pbc="T T T"
Al       1.53423929       0.87298461       2.51007454        0      -1.60925380       0.09619212      -1.03262344       0.74608791       1.00298679       0.03482469
Al      -0.01349004       1.78470221       5.05709163        1       0.21561244      -0.04339796       1.72443318       0.02271150       0.40733072      -1.66437006
N        1.55208975       0.92225132       4.42203509        2       0.38659383       0.63935798      -0.93002920       0.04495895      -0.39009830      -0.56986088
N        0.09667396       1.88681817       1.81230438        3       1.00704758      -0.69215222       0.23821952      -0.81375825      -1.02021933       2.19940615
4
Lattice="3.128588 0.0 0.0 -1.5642939988088433 2.709436998432005 0.0 0.0 0.0 5.016955" Properties=species:S:1:pos:R:3:spacegroup_kinds:I:1:momenta:R:3:forces:R:3 spacegroup="P 1" unit_cell=conventional occupancy="_JSON {\"0\": {\"Al\": 1}, \"1\": {\"Al\": 1}, \"2\": {\"N\": 1}, \"3\": {\"N\": 1}}" energy=-29.201902389526367 free_energy=-29.201902389526367 stress="-0.026441140100359917 0.03815564885735512 -0.031382448971271515 0.03815564885735512 -0.004877584986388683 0.0015437863767147064 -0.031382448971271515 0.0015437863767147064 -0.05181984230875969" pbc="T T T"
Al       1.49382404       0.87740193       2.48150488        0      -0.08661638      -0.02748786       0.25595495       2.48428154      -0.46186784       1.22611713
Al      -0.02076737       1.79337851       5.08843296        1       0.00716724       0.60209066      -1.27068213       0.64723229       0.57433444      -2.36004019
N        1.60157222       0.96971683       4.33361320        2       0.49437276       0.53651029      -0.17473366      -0.53882563      -0.70145416       1.74608874
N        0.13924905       1.81421453       1.89535167        3      -0.41492357      -1.11111309       1.18946091      -2.59268856       0.58898735      -0.61216617
4
Lattice="3.128588 0.0 0.0 -1.5642939988088433 2.709436998432005 0.0 0.0 0.0 5.016955" Properties=species:S:1:pos:R:3:spacegroup_kinds:I:1:momenta:R:3:forces:R:3 spacegroup="P 1" unit_cell=conventional occupancy="_JSON {\"0\": {\"Al\": 1}, \"1\": {\"Al\": 1}, \"2\": {\"N\": 1}, \"3\": {\"N\": 1}}" energy=-29.574626922607422 free_energy=-29.574626922607422 stress="-0.023618075996637344 -0.01432132814079523 -0.011127945967018604 -0.01432132814079523 0.015030017122626305 -0.0028545891400426626 -0.011127945967018604 -0.0028545891400426626 -0.014440436847507954" pbc="T T T"
Al       1.53421963       0.88369271       2.53780578        0       1.55944022       0.36820891       1.55970972       0.29264212      -0.24000540      -0.91367829
Al      -0.00048007       1.82107764       4.98837345        1       1.01688571       0.86374304      -2.47525435       0.94369513       0.52251518       0.78486621
N        1.63583966       0.96584647       4.40663187        2      -0.31021909      -0.52489311       1.27117419      -1.15103734      -0.78907144       0.05687831
N       -0.01177522       1.75252280       1.90648730        3      -2.26610686      -0.70705885      -0.35562947      -0.08529985       0.50656146       0.07193388
4
Lattice="3.128588 0.0 0.0 -1.5642939988088433 2.709436998432005 0.0 0.0 0.0 5.016955" Properties=species:S:1:pos:R:3:spacegroup_kinds:I:1:momenta:R:3:forces:R:3 spacegroup="P 1" unit_cell=conventional occupancy="_JSON {\"0\": {\"Al\": 1}, \"1\": {\"Al\": 1}, \"2\": {\"N\": 1}, \"3\": {\"N\": 1}}" energy=-29.372072219848633 free_energy=-29.372072219848633 stress="-0.005629684776067734 -0.018719423562288284 0.0158495232462883 -0.018719423562288284 -0.03227296844124794 0.017212215811014175 0.0158495232462883 0.017212215811014175 -0.007298188749700785" pbc="T T T"
Al       1.57072834       0.88046443       2.56331973        0      -0.00039284      -0.37629517      -0.57843980      -1.34386444      -0.44065750      -1.50707698
Al       0.05055071       1.86456079       4.94968572        1       0.52727033       0.77034152       1.04960121      -0.49129191      -1.36433649       1.82584763
N        1.58204798       0.88176659       4.44992393        2      -0.27832262      -1.02263377      -0.55459307       0.15003935       1.16376066      -0.85894901
N       -0.12661083       1.75915455       1.88869866        3      -0.24855489       0.62858739       0.08343169       1.68511701       0.64123344       0.54017800
4
Lattice="3.128588 0.0 0.0 -1.5642939988088433 2.709436998432005 0.0 0.0 0.0 5.016955" Properties=species:S:1:pos:R:3:spacegroup_kinds:I:1:momenta:R:3:forces:R:3 spacegroup="P 1" unit_cell=conventional occupancy="_JSON {\"0\": {\"Al\": 1}, \"1\": {\"Al\": 1}, \"2\": {\"N\": 1}, \"3\": {\"N\": 1}}" energy=-29.596923828125 free_energy=-29.596923828125 stress="0.015976490452885628 -0.004506162833422422 0.006018758285790682 -0.004506162833422422 -0.02549927309155464 -0.004597087390720844 0.006018758285790682 -0.004597087390720844 -0.010013649240136147" pbc="T T T"
Al       1.53284805       0.86390066       2.51395078        0      -1.59464530      -0.16469683      -1.74991282      -0.27820441       0.89915758      -0.15420435
Al       0.06317843       1.83227865       5.00948379        1       0.38440023      -1.80666593       1.59449893      -0.58708441      -0.41271591       0.16725057
N        1.58572475       0.89623785       4.41422577        2       0.14193178       1.12964936      -0.09119183       0.25704035       0.38076574       0.00228111
N       -0.08152102       1.83862421       1.90381445        3       1.06831328       0.84171340       0.24660574       0.60824853      -0.86720765      -0.01532719
4
Lattice="3.128588 0.0 0.0 -1.5642939988088433 2.709436998432005 0.0 0.0 0.0 5.016955" Properties=species:S:1:pos:R:3:spacegroup_kinds:I:1:momenta:R:3:forces:R:3 spacegroup="P 1" unit_cell=conventional occupancy="_JSON {\"0\": {\"Al\": 1}, \"1\": {\"Al\": 1}, \"2\": {\"N\": 1}, \"3\": {\"N\": 1}}" energy=-29.462553024291992 free_energy=-29.462553024291992 stress="-0.005697088781744242 0.010849458165466785 -0.003906629513949156 0.010849458165466785 -0.01913369633257389 -0.012703166343271732 -0.003906629513949156 -0.012703166343271732 -0.011871381662786007" pbc="T T T"
Al       1.48347330       0.88264394       2.44527933        0      -0.30454484       1.01149512      -0.60004505       0.88393015       0.95768362       1.70776999
Al       0.06164411       1.77681260       5.07306068        1      -0.86715256      -0.75617392       0.43048889      -0.30080554       0.71655357      -1.72279978
N        1.61717710       0.94947182       4.40498426        2       0.38645887       0.04830111       0.18623293      -0.07234035      -0.67486018       0.48910770
N       -0.01486932       1.85626148       1.92266703        3       0.78523853      -0.30362228      -0.01667680      -0.51078415      -0.99937689      -0.47407764
4
Lattice="3.128588 0.0 0.0 -1.5642939988088433 2.709436998432005 0.0 0.0 0.0 5.016955" Properties=species:S:1:pos:R:3:spacegroup_kinds:I:1:momenta:R:3:forces:R:3 spacegroup="P 1" unit_cell=conventional occupancy="_JSON {\"0\": {\"Al\": 1}, \"1\": {\"Al\": 1}, \"2\": {\"N\": 1}, \"3\": {\"N\": 1}}" energy=-29.518749237060547 free_energy=-29.518749237060547 stress="-0.023370740935206413 0.006539956666529179 -0.016098279505968094 0.006539956666529179 0.006697495933622122 -0.0004823561757802963 -0.016098279505968094 -0.0004823561757802963 -0.022161217406392097" pbc="T T T"
Al       1.50607638       0.94974318       2.46463699        0       1.15921310       0.62635234       1.50689862       1.24247396      -0.60704637       1.15697372
Al       0.01335471       1.75088040       5.06242872        1      -0.91112021       0.14825233      -0.88962546       0.51474696       0.69610512      -1.43088782
N        1.62637960       0.90489620       4.42127858        2      -0.14223506      -0.64065014       0.21498394      -0.71771908      -0.51824147      -0.07985040
N        0.02538008       1.82158364       1.88963025        3      -0.10585781      -0.13395446      -0.83225714      -1.03950191       0.42918289       0.35376453
4
Lattice="3.128588 0.0 0.0 -1.5642939988088433 2.709436998432005 0.0 0.0 0.0 5.016955" Properties=species:S:1:pos:R:3:spacegroup_kinds:I:1:momenta:R:3:forces:R:3 spacegroup="P 1" unit_cell=conventional occupancy="_JSON {\"0\": {\"Al\": 1}, \"1\": {\"Al\": 1}, \"2\": {\"N\": 1}, \"3\": {\"N\": 1}}" energy=-29.605010986328125 free_energy=-29.605010986328125 stress="0.0015958893345668912 -0.0067858085967600346 -0.0030954366084188223 -0.0067858085967600346 0.0017805546522140503 0.0017245030030608177 -0.0030954366084188223 0.0017245030030608177 -0.023115022107958794" pbc="T T T"
Al       1.56693923       0.93861031       2.54470908        0       1.44875279      -0.98943813       1.48437327      -0.01659193      -0.29131502      -1.20299590
Al      -0.01304568       1.78057346       4.99752455        1       0.01689834       1.11024977      -1.70729937       0.38438785       0.02358303       0.50759387
N        1.58384205       0.87104972       4.42155573        2      -0.67927485      -0.02704948      -0.19037191      -0.39236984       0.15177944      -0.39792556
N        0.00122212       1.81989275       1.85992052        3      -0.78637629      -0.09376210       0.41329800       0.02457383       0.11595282       1.09332728
4
Lattice="3.128588 0.0 0.0 -1.5642939988088433 2.709436998432005 0.0 0.0 0.0 5.016955" Properties=species:S:1:pos:R:3:spacegroup_kinds:I:1:momenta:R:3:forces:R:3 spacegroup="P 1" unit_cell=conventional occupancy="_JSON {\"0\": {\"Al\": 1}, \"1\": {\"Al\": 1}, \"2\": {\"N\": 1}, \"3\": {\"N\": 1}}" energy=-29.470205307006836 free_energy=-29.470205307006836 stress="0.00320331915281713 -0.017801593989133835 0.011838367208838463 -0.017801593989133835 -0.04134909436106682 0.007359939161688089 0.011838367208838463 0.007359939161688089 -0.005160217173397541" pbc="T T T"
Al       1.62755625       0.89950079       2.54516750        0       1.04970752      -0.99981881      -0.80202859      -1.41064668       0.15933374      -0.91779053
Al      -0.00757055       1.81703573       4.95606288        1      -0.03757948       0.11959877      -0.16512860      -0.26242602      -0.84351689       1.41445673
N        1.52756234       0.85151204       4.42065482        2      -0.42752218       0.29023019      -0.07965745       0.31765699       0.98894757      -0.00115413
N       -0.06966664       1.84442109       1.93994537        3      -0.58460587       0.58998987       1.04681461       1.35541558      -0.30476433      -0.49551213
4
Lattice="3.128588 0.0 0.0 -1.5642939988088433 2.709436998432005 0.0 0.0 0.0 5.016955" Properties=species:S:1:pos:R:3:spacegroup_kinds:I:1:momenta:R:3:forces:R:3 spacegroup="P 1" unit_cell=conventional occupancy="_JSON {\"0\": {\"Al\": 1}, \"1\": {\"Al\": 1}, \"2\": {\"N\": 1}, \"3\": {\"N\": 1}}" energy=-29.452987670898438 free_energy=-29.452987670898438 stress="-0.01322514470666647 -0.02375011146068573 0.007911443710327148 -0.02375011146068573 -0.04793187230825424 -0.007333294488489628 0.007911443710327148 -0.007333294488489628 0.0286329947412014" pbc="T T T"
Al       1.63184036       0.85684028       2.46693551        0      -0.97589012      -0.55899566      -1.34838282      -1.39010167       1.11025918       1.17304015
Al      -0.02377743       1.82170283       4.98999596        1      -0.28018899       0.45883541       1.28013410      -0.08532502       0.08283402       0.34697178
N        1.52792700       0.92957746       4.44479006        2       0.11446516       0.97873202       0.08012629       0.22036077      -0.17398629       0.05599284
N       -0.04718866       1.83921502       2.00086012        3       1.14161393      -0.87857176      -0.01187756       1.25506592      -1.01910710      -1.57600474
4
Lattice="3.128588 0.0 0.0 -1.5642939988088433 2.709436998432005 0.0 0.0 0.0 5.016955" Properties=species:S:1:pos:R:3:spacegroup_kinds:I:1:momenta:R:3:forces:R:3 spacegroup="P 1" unit_cell=conventional occupancy="_JSON {\"0\": {\"Al\": 1}, \"1\": {\"Al\": 1}, \"2\": {\"N\": 1}, \"3\": {\"N\": 1}}" energy=-29.53631591796875 free_energy=-29.53631591796875 stress="-0.019857656210660934 0.013829002156853676 -0.005717399530112743 0.013829002156853676 -0.0031642375979572535 -0.0016707810573279858 -0.005717399530112743 -0.0016707810573279858 -0.0062600960955023766" pbc="T T T"
Al       1.56291508       0.86348346       2.43836899        0      -1.44558749       0.38889099       0.34074896       0.67286110       0.11609183       1.45909333
Al      -0.01834143       1.83613137       5.05736565        1       0.19731470      -0.00921598       1.04742171       0.06595380       0.15003394      -1.19267344
N        1.54726701       0.95741145       4.47045645        2      -0.01024001       0.05685096       0.14844032       0.09761226      -0.44420457      -0.65174448
N        0.05576966       1.77068667       1.90062729        3       1.25851279      -0.43652592      -1.53661096      -0.83642709       0.17807910       0.38532484
4
Lattice="3.128588 0.0 0.0 -1.5642939988088433 2.709436998432005 0.0 0.0 0.0 5.016955" Properties=species:S:1:pos:R:3:spacegroup_kinds:I:1:momenta:R:3:forces:R:3 spacegroup="P 1" unit_cell=conventional occupancy="_JSON {\"0\": {\"Al\": 1}, \"1\": {\"Al\": 1}, \"2\": {\"N\": 1}, \"3\": {\"N\": 1}}" energy=-29.5310001373291 free_energy=-29.5310001373291 stress="-0.01829412393271923 0.015707433223724365 -0.011607719585299492 0.015707433223724365 0.0031479783356189728 0.004605600144714117 -0.011607719585299492 0.004605600144714117 -0.01725887507200241" pbc="T T T"
Al       1.54701077       0.87273544       2.46070914        0       0.71855755      -0.11584344       0.49435275       1.07476771      -0.28505775       1.06925416
Al      -0.01761628       1.84389393       5.05391118        1       0.19346437       0.17720403      -0.69190054       0.23187578      -0.07941583      -1.16825199
N        1.56395351       0.94331126       4.45961402        2       0.32487383      -0.12409370      -0.51346213      -0.11547028      -0.20503663      -0.72920203
N        0.06831348       1.75176765       1.87546341        3      -1.23689578       0.06273318       0.71100996      -1.19117308       0.56951016       0.82819951
4
Lattice="3.128588 0.0 0.0 -1.5642939988088433 2.709436998432005 0.0 0.0 0.0 5.016955" Properties=species:S:1:pos:R:3:spacegroup_kinds:I:1:momenta:R:3:forces:R:3 spacegroup="P 1" unit_cell=conventional occupancy="_JSON {\"0\": {\"Al\": 1}, \"1\": {\"Al\": 1}, \"2\": {\"N\": 1}, \"3\": {\"N\": 1}}" energy=-29.61321258544922 free_energy=-29.61321258544922 stress="-0.008381852880120277 -0.004276694729924202 0.005492858123034239 -0.004276694729924202 -0.013937355019152164 0.0014804902020841837 0.005492858123034239 0.0014804902020841837 0.012475306168198586" pbc="T T T"
Al       1.57767911       0.87033377       2.48321562        0       0.42145881      -0.10086033       0.75449437      -0.50598669       0.14215320       0.64867675
Al       0.00878680       1.84488740       5.00616580        1       0.94842483       0.04829713      -0.67234657      -0.28190961      -0.37569696       0.05942824
N        1.54733734       0.91884316       4.41695259        2      -0.50233569      -0.06173885      -0.86681644       0.26756769       0.16352487       0.34766725
N       -0.02491942       1.77881440       1.96659668        3      -0.86754795       0.11430211       0.78466873       0.52032846       0.07001880      -1.05577219
4
Lattice="3.128588 0.0 0.0 -1.5642939988088433 2.709436998432005 0.0 0.0 0.0 5.016955" Properties=species:S:1:pos:R:3:spacegroup_kinds:I:1:momenta:R:3:forces:R:3 spacegroup="P 1" unit_cell=conventional occupancy="_JSON {\"0\": {\"Al\": 1}, \"1\": {\"Al\": 1}, \"2\": {\"N\": 1}, \"3\": {\"N\": 1}}" energy=-29.55784034729004 free_energy=-29.55784034729004 stress="-0.016363678500056267 -0.0029474447946995497 0.012903633527457714 -0.0029474447946995497 -0.006207453552633524 0.0015375182265415788 0.012903633527457714 0.0015375182265415788 -0.002714608097448945" pbc="T T T"
Al       1.59068816       0.88023427       2.52274587        0      -0.41625607       0.17887052       0.33160881      -0.90884292      -0.14030689      -0.36867905
Al       0.01872289       1.83477380       4.97781994        1       0.14973940      -0.20762994      -0.17578562      -0.72829765      -0.10046408       0.72652525
N        1.52039168       0.92489994       4.39464375        2       0.19754393       0.25939819       0.47781785       0.72476071      -0.09604952       0.71574086
N       -0.04216862       1.77342027       1.96745696        3       0.06897275      -0.23063874      -0.63364095       0.91238016       0.33682054      -1.07358706
4
Lattice="3.128588 0.0 0.0 -1.5642939988088433 2.709436998432005 0.0 0.0 0.0 5.016955" Properties=species:S:1:pos:R:3:spacegroup_kinds:I:1:momenta:R:3:forces:R:3 spacegroup="P 1" unit_cell=conventional occupancy="_JSON {\"0\": {\"Al\": 1}, \"1\": {\"Al\": 1}, \"2\": {\"N\": 1}, \"3\": {\"N\": 1}}" energy=-29.621112823486328 free_energy=-29.621112823486328 stress="-0.021500732749700546 0.0052765486761927605 -0.0032673985697329044 0.0052765486761927605 0.010657597333192825 0.0019249306060373783 -0.0032673985697329044 0.0019249306060373783 -0.001589739229530096" pbc="T T T"
Al       1.54767653       0.89587760       2.50832861        0      -0.85809983       0.46896534      -1.00003064       0.39160430      -0.39029068      -0.15032789
Al       0.00665799       1.82067519       5.00342495        1      -0.72966949      -0.11082665       1.46536740      -0.00949985       0.22696662       0.34863153
N        1.57185929       0.94293294       4.45440721        2       0.62349871      -0.37686517       0.64593174      -0.01969604      -0.43335015      -0.83890092
N        0.01256035       1.75229422       1.88600534        3       0.96427065       0.01872651      -1.11126841      -0.36240834       0.59667397       0.64059699
4
Lattice="3.128588 0.0 0.0 -1.5642939988088433 2.709436998432005 0.0 0.0 0.0 5.016955" Properties=species:S:1:pos:R:3:spacegroup_kinds:I:1:momenta:R:3:forces:R:3 spacegroup="P 1" unit_cell=conventional occupancy="_JSON {\"0\": {\"Al\": 1}, \"1\": {\"Al\": 1}, \"2\": {\"N\": 1}, \"3\": {\"N\": 1}}" energy=-29.520856857299805 free_energy=-29.520856857299805 stress="-0.014047611504793167 0.011820986866950989 -0.014255537651479244 0.011820986866950989 -0.005614933092147112 0.00936148688197136 -0.014255537651479244 0.00936148688197136 -0.019571084529161453" pbc="T T T"
Al       1.52999430       0.91403916       2.46474572        0       0.09545062      -0.23101207      -1.18071373       1.21875525      -0.63577074       0.99290287
Al      -0.00890655       1.82180733       5.05208966        1       0.31216958      -0.10747552       0.45537694       0.39472789      -0.38378572      -1.12710428
N        1.59437709       0.88605555       4.45928984        2      -0.04799023      -0.53350234      -0.20523278      -0.40810570       0.35578993      -0.79021585
N        0.05384451       1.77207217       1.87145004        3      -0.35962994       0.87198998       0.93056964      -1.20537758       0.66376656       0.92441708
4
Lattice="3.128588 0.0 0.0 -1.5642939988088433 2.709436998432005 0.0 0.0 0.0 5.016955" Properties=species:S:1:pos:R:3:spacegroup_kinds:I:1:momenta:R:3:forces:R:3 spacegroup="P 1" unit_cell=conventional occupancy="_JSON {\"0\": {\"Al\": 1}, \"1\": {\"Al\": 1}, \"2\": {\"N\": 1}, \"3\": {\"N\": 1}}" energy=-29.61878776550293 free_energy=-29.61878776550293 stress="0.010117682628333569 -0.0018218590412288904 -0.0018730107694864273 -0.0018218590412288904 -0.024783162400126457 0.004591108299791813 -0.0018730107694864273 0.004591108299791813 2.6399833586765453e-05" pbc="T T T"
Al       1.53818034       0.90928018       2.47247633        0       0.23228518      -0.27447280       1.41733339       0.21201040       0.18702269       0.85530752
Al       0.01802691       1.81430741       5.03506516        1       0.60360837      -0.42930259      -1.11140805       0.03760086      -0.69444305      -0.55142510
N        1.59518012       0.85128052       4.42414648        2       0.09084634       0.02420659      -0.77345422      -0.19470185       0.84070766       0.01228058
N       -0.01452982       1.83034435       1.92467358        3      -0.92673987       0.67956884       0.46752896      -0.05490963      -0.33328742      -0.31616312
4
Lattice="3.128588 0.0 0.0 -1.5642939988088433 2.709436998432005 0.0 0.0 0.0 5.016955" Properties=species:S:1:pos:R:3:spacegroup_kinds:I:1:momenta:R:3:forces:R:3 spacegroup="P 1" unit_cell=conventional occupancy="_JSON {\"0\": {\"Al\": 1}, \"1\": {\"Al\": 1}, \"2\": {\"N\": 1}, \"3\": {\"N\": 1}}" energy=-29.623743057250977 free_energy=-29.623743057250977 stress="0.00430032704025507 -0.00867265835404396 0.002881841268390417 -0.00867265835404396 -0.006943854037672281 -0.004434546455740929 0.002881841268390417 -0.004434546455740929 -0.01483908947557211" pbc="T T T"
Al       1.54321203       0.89379623       2.53645985        0      -0.00705474      -0.41529124       0.79444962      -0.25249887       0.39303041      -0.87834406
Al       0.03580901       1.79893953       4.98957808        1       0.09337969      -0.29525061      -0.61191909      -0.16600910       0.14057861       0.62745190
N        1.59619756       0.90645093       4.40111848        2      -0.02189829       1.09350585       0.27120802      -0.08899990      -0.09593534       0.34911114
N       -0.05911259       1.83464210       1.91219260        3      -0.06442663      -0.38296400      -0.45373850       0.50750774      -0.43767372      -0.09821907
