4
Lattice="3.128588 0.0 0.0 -1.5642939988088433 2.709436998432005 0.0 0.0 0.0 5.016955" Properties=species:S:1:pos:R:3:spacegroup_kinds:I:1:forces:R:3 spacegroup="P 1" unit_cell=conventional occupancy="_JSON {\"0\": {\"Al\": 1}, \"1\": {\"Al\": 1}, \"2\": {\"N\": 1}, \"3\": {\"N\": 1}}" energy=-29.673715591430664 free_energy=-29.673715591430664 stress="-0.0022254041396081448 -1.4324559742817655e-06 -1.4873883458221826e-08 -1.4324559742817655e-06 -0.002227376215159893 -8.102743009885671e-08 -1.4873883458221826e-08 -8.102743009885671e-08 -0.0054536499083042145" pbc="T T T"
Al       1.56429556       0.90314476       2.50490041        0      -0.00003501       0.00001990       0.00553105
Al      -0.00000156       1.80629224       5.01337791        1       0.00003530      -0.00001729       0.00552477
N        1.56429556       0.90314476       4.41849749        2      -0.00003739       0.00001819      -0.00553010
N       -0.00000156       1.80629224       1.91001999        3       0.00003695      -0.00002064      -0.00552546
