4
Lattice="3.128588 0.0 0.0 -1.5642939988088433 2.709436998432005 0.0 0.0 0.0 5.016955" Properties=species:S:1:pos:R:3:spacegroup_kinds:I:1:momenta:R:3:forces:R:3 spacegroup="P 1" unit_cell=conventional occupancy="_JSON {\"0\": {\"Al\": 1}, \"1\": {\"Al\": 1}, \"2\": {\"N\": 1}, \"3\": {\"N\": 1}}" energy=-29.623743057250977 free_energy=-29.623743057250977 stress="0.004300268832594156 -0.008672663941979408 0.0028820051811635494 -0.008672663941979408 -0.006943852640688419 -0.004434542264789343 0.0028820051811635494 -0.004434542264789343 -0.014839041978120804" pbc="T T T"
Al       1.54321203       0.89379621       2.53645982        0      -0.00705431      -0.41529102       0.79444923      -0.25250307       0.39302850      -0.87834418
Al       0.03580900       1.79893952       4.98957805        1       0.09337879      -0.29525136      -0.61191864      -0.16601212       0.14058056       0.62745130
N        1.59619755       0.90645097       4.40111846        2      -0.02189774       1.09350649       0.27120784      -0.08899741      -0.09593673       0.34911180
N       -0.05911261       1.83464210       1.91219261        3      -0.06442671      -0.38296417      -0.45373854       0.50751269      -0.43767223      -0.09821873
