4
Lattice="3.128588 0.0 0.0 -1.5642939988088433 2.709436998432005 0.0 0.0 0.0 5.016955" Properties=species:S:1:pos:R:3:spacegroup_kinds:I:1:momenta:R:3:forces:R:3 spacegroup="P 1" unit_cell=conventional occupancy="_JSON {\"0\": {\"Al\": 1}, \"1\": {\"Al\": 1}, \"2\": {\"N\": 1}, \"3\": {\"N\": 1}}" energy=-29.673717498779297 free_energy=-29.673717498779297 stress="-0.0022254022769629955 -1.3481876521836966e-06 -4.006853160376522e-08 -1.3481876521836966e-06 -0.002227488439530134 -1.014803086007987e-08 -4.006853160376522e-08 -1.014803086007987e-08 -0.005453627556562424" pbc="T T T"
Al       1.56429556       0.90314476       2.50490041        0       0.68448204       0.53670047       0.91071479      -0.00003378       0.00002069       0.00553221
Al      -0.00000156       1.80629224       5.01337791        1       0.31075784       0.39520501      -1.87833745       0.00003549      -0.00002016       0.00552524
N        1.56429556       0.90314476       4.41849749        2      -0.23293981      -0.79739853      -0.40745139      -0.00003751       0.00002105      -0.00553112
N       -0.00000156       1.80629224       1.91001999        3      -0.76230006      -0.13450696       1.37507406       0.00003576      -0.00002166      -0.00552624
4
Lattice="3.128588 0.0 0.0 -1.5642939988088433 2.709436998432005 0.0 0.0 0.0 5.016955" Properties=species:S:1:pos:R:3:spacegroup_kinds:I:1:momenta:R:3:forces:R:3 spacegroup="P 1" unit_cell=conventional occupancy="_JSON {\"0\": {\"Al\": 1}, \"1\": {\"Al\": 1}, \"2\": {\"N\": 1}, \"3\": {\"N\": 1}}" energy=-29.43359375 free_energy=-29.43359375 stress="-0.013773459009826183 -0.016446225345134735 0.012948860414326191 -0.016446225345134735 -0.023968666791915894 0.009969773702323437 0.012948860414326191 0.009969773702323437 -0.01205935887992382" pbc="T T T"
Al       1.60246141       0.92231284       2.54150849        0       0.57498215      -0.13491998       1.02882472      -1.31301296      -0.49033481      -0.87831223
Al       0.00328789       1.81111139       4.94718774        1      -0.44725803       0.00118074      -1.07867316      -0.30154330      -0.59423274       1.18011796
N        1.53678588       0.85870780       4.38099594        2       0.14052038      -0.46066744       0.20203867       0.28490958       0.67984527       1.25553644
N       -0.05228245       1.80432671       2.00436659        3      -0.26824451       0.59440669      -0.15219026       1.32964671       0.40472215      -1.55734193
4
Lattice="3.128588 0.0 0.0 -1.5642939988088433 2.709436998432005 0.0 0.0 0.0 5.016955" Properties=species:S:1:pos:R:3:spacegroup_kinds:I:1:momenta:R:3:forces:R:3 spacegroup="P 1" unit_cell=conventional occupancy="_JSON {\"0\": {\"Al\": 1}, \"1\": {\"Al\": 1}, \"2\": {\"N\": 1}, \"3\": {\"N\": 1}}" energy=-29.5672550201416 free_energy=-29.5672550201416 stress="0.01291570533066988 0.0017024792032316327 0.003579381387680769 0.0017024792032316327 -0.025856969878077507 -0.0053691440261900425 0.003579381387680769 -0.0053691440261900425 -0.011435276828706264" pbc="T T T"
Al       1.59598186       0.90138486       2.55101266        0      -0.85003990      -0.64755160      -0.41676278      -0.33522767       0.74370360      -1.26921260
Al      -0.01311799       1.79082859       4.96769657        1      -0.24557018      -0.74327802       1.65595784      -0.18280174      -0.17026789       1.21499717
N        1.52960409       0.86779351       4.41996340        2       0.16413071       0.60763586       0.63654565       0.31887653       0.39321440      -0.09056930
N       -0.00060096       1.87475190       1.90756519        3       0.93147939       0.78319382      -1.87574070       0.19915295      -0.96665037       0.14478484
4
Lattice="3.128588 0.0 0.0 -1.5642939988088433 2.709436998432005 0.0 0.0 0.0 5.016955" Properties=species:S:1:pos:R:3:spacegroup_kinds:I:1:momenta:R:3:forces:R:3 spacegroup="P 1" unit_cell=conventional occupancy="_JSON {\"0\": {\"Al\": 1}, \"1\": {\"Al\": 1}, \"2\": {\"N\": 1}, \"3\": {\"N\": 1}}" energy=-29.406274795532227 free_energy=-29.406274795532227 stress="0.01068881805986166 0.016498230397701263 -0.00816401932388544 0.016498230397701263 -0.009423457086086273 -0.015553925186395645 -0.00816401932388544 -0.015553925186395645 -0.061254117637872696" pbc="T T T"
Al       1.53423927       0.87298461       2.51007454        0      -1.60925404       0.09619228      -1.03262320       0.74608839       1.00298595       0.03482372
Al      -0.01349003       1.78470221       5.05709165        1       0.21561213      -0.04339791       1.72443278       0.02271275       0.40732896      -1.66437054
N        1.55208975       0.92225133       4.42203506        2       0.38659417       0.63935806      -0.93002929       0.04495761      -0.39009696      -0.56985974
N        0.09667398       1.88681817       1.81230437        3       1.00704774      -0.69215238       0.23821968      -0.81375861      -1.02021790       2.19940615
4
Lattice="3.128588 0.0 0.0 -1.5642939988088433 2.709436998432005 0.0 0.0 0.0 5.016955" Properties=species:S:1:pos:R:3:spacegroup_kinds:I:1:momenta:R:3:forces:R:3 spacegroup="P 1" unit_cell=conventional occupancy="_JSON {\"0\": {\"Al\": 1}, \"1\": {\"Al\": 1}, \"2\": {\"N\": 1}, \"3\": {\"N\": 1}}" energy=-29.201902389526367 free_energy=-29.201902389526367 stress="-0.02644101157784462 0.0381554439663887 -0.031382590532302856 0.0381554439663887 -0.004877401515841484 0.0015438258415088058 -0.031382590532302856 0.0015438258415088058 -0.05181969329714775" pbc="T T T"
Al       1.49382402       0.87740194       2.48150489        0      -0.08661623      -0.02748801       0.25595490       2.48428321      -0.46186808       1.22612011
Al      -0.02076738       1.79337851       5.08843294        1       0.00716713       0.60209082      -1.27068249       0.64723253       0.57433259      -2.36004043
N        1.60157224       0.96971684       4.33361320        2       0.49437280       0.53651003      -0.17473364      -0.53882593      -0.70145196       1.74608827
N        0.13924907       1.81421453       1.89535168        3      -0.41492371      -1.11111285       1.18946126      -2.59268999       0.58898735      -0.61216819
4
Lattice="3.128588 0.0 0.0 -1.5642939988088433 2.709436998432005 0.0 0.0 0.0 5.016955" Properties=species:S:1:pos:R:3:spacegroup_kinds:I:1:momenta:R:3:forces:R:3 spacegroup="P 1" unit_cell=conventional occupancy="_JSON {\"0\": {\"Al\": 1}, \"1\": {\"Al\": 1}, \"2\": {\"N\": 1}, \"3\": {\"N\": 1}}" energy=-29.574628829956055 free_energy=-29.574628829956055 stress="-0.023618007078766823 -0.014321472495794296 -0.011128070764243603 -0.014321472495794296 0.01503019779920578 -0.002854531165212393 -0.011128070764243603 -0.002854531165212393 -0.014440272003412247" pbc="T T T"
Al       1.53421963       0.88369270       2.53780580        0       1.55944063       0.36820883       1.55971000       0.29264262      -0.24000594      -0.91367424
Al      -0.00048007       1.82107765       4.98837342        1       1.01688597       0.86374329      -2.47525451       0.94369459       0.52251267       0.78485984
N        1.63583967       0.96584646       4.40663187        2      -0.31021947      -0.52489345       1.27117407      -1.15103769      -0.78906739       0.05688086
N       -0.01177523       1.75252283       1.90648732        3      -2.26610720      -0.70705871      -0.35562954      -0.08529941       0.50656068       0.07193328
4
Lattice="3.128588 0.0 0.0 -1.5642939988088433 2.709436998432005 0.0 0.0 0.0 5.016955" Properties=species:S:1:pos:R:3:spacegroup_kinds:I:1:momenta:R:3:forces:R:3 spacegroup="P 1" unit_cell=conventional occupancy="_JSON {\"0\": {\"Al\": 1}, \"1\": {\"Al\": 1}, \"2\": {\"N\": 1}, \"3\": {\"N\": 1}}" energy=-29.372072219848633 free_energy=-29.372072219848633 stress="-0.00562941562384367 -0.018719587475061417 0.015849458053708076 -0.018719587475061417 -0.03227302059531212 0.0172122772783041 0.015849458053708076 0.0172122772783041 -0.007298099342733622" pbc="T T T"
Al       1.57072836       0.88046442       2.56331974        0      -0.00039256      -0.37629515      -0.57844037      -1.34386516      -0.44065765      -1.50707734
Al       0.05055072       1.86456081       4.94968570        1       0.52727018       0.77034100       1.04960235      -0.49128664      -1.36434019       1.82584691
N        1.58204796       0.88176657       4.44992393        2      -0.27832263      -1.02263320      -0.55459317       0.15003411       1.16376436      -0.85894787
N       -0.12661087       1.75915458       1.88869866        3      -0.24855505       0.62858733       0.08343119       1.68511760       0.64123344       0.54017788
4
Lattice="3.128588 0.0 0.0 -1.5642939988088433 2.709436998432005 0.0 0.0 0.0 5.016955" Properties=species:S:1:pos:R:3:spacegroup_kinds:I:1:momenta:R:3:forces:R:3 spacegroup="P 1" unit_cell=conventional occupancy="_JSON {\"0\": {\"Al\": 1}, \"1\": {\"Al\": 1}, \"2\": {\"N\": 1}, \"3\": {\"N\": 1}}" energy=-29.596923828125 free_energy=-29.596923828125 stress="0.015976233407855034 -0.004505967255681753 0.006018653512001038 -0.004505967255681753 -0.02549932338297367 -0.004597119987010956 0.006018653512001038 -0.004597119987010956 -0.010013981722295284" pbc="T T T"
Al       1.53284807       0.86390067       2.51395076        0      -1.59464576      -0.16469632      -1.74991265      -0.27820665       0.89915907      -0.15420459
Al       0.06317842       1.83227863       5.00948381        1       0.38439998      -1.80666671       1.59449884      -0.58708316      -0.41271427       0.16725004
N        1.58572475       0.89623790       4.41422577        2       0.14193205       1.12965010      -0.09119161       0.25704086       0.38076442       0.00228153
N       -0.08152105       1.83862421       1.90381443        3       1.06831365       0.84171290       0.24660540       0.60824907      -0.86720926      -0.01532679
4
Lattice="3.128588 0.0 0.0 -1.5642939988088433 2.709436998432005 0.0 0.0 0.0 5.016955" Properties=species:S:1:pos:R:3:spacegroup_kinds:I:1:momenta:R:3:forces:R:3 spacegroup="P 1" unit_cell=conventional occupancy="_JSON {\"0\": {\"Al\": 1}, \"1\": {\"Al\": 1}, \"2\": {\"N\": 1}, \"3\": {\"N\": 1}}" energy=-29.462553024291992 free_energy=-29.462553024291992 stress="-0.005697081796824932 0.01084938831627369 -0.003906563390046358 0.01084938831627369 -0.019133897498250008 -0.012703157030045986 -0.003906563390046358 -0.012703157030045986 -0.011871319264173508" pbc="T T T"
Al       1.48347327       0.88264395       2.44527933        0      -0.30454555       1.01149510      -0.60004483       0.88393104       0.95768547       1.70777059
Al       0.06164409       1.77681256       5.07306069        1      -0.86715270      -0.75617373       0.43048873      -0.30080754       0.71655393      -1.72280025
N        1.61717713       0.94947189       4.40498426        2       0.38645901       0.04830058       0.18623264      -0.07233910      -0.67486095       0.48910677
N       -0.01486928       1.85626148       1.92266699        3       0.78523921      -0.30362199      -0.01667663      -0.51078463      -0.99937856      -0.47407717
4
Lattice="3.128588 0.0 0.0 -1.5642939988088433 2.709436998432005 0.0 0.0 0.0 5.016955" Properties=species:S:1:pos:R:3:spacegroup_kinds:I:1:momenta:R:3:forces:R:3 spacegroup="P 1" unit_cell=conventional occupancy="_JSON {\"0\": {\"Al\": 1}, \"1\": {\"Al\": 1}, \"2\": {\"N\": 1}, \"3\": {\"N\": 1}}" energy=-29.518747329711914 free_energy=-29.518747329711914 stress="-0.02337099425494671 0.0065398672595620155 -0.01609809696674347 0.0065398672595620155 0.00669719185680151 -0.0004823968338314444 -0.01609809696674347 -0.0004823968338314444 -0.022160230204463005" pbc="T T T"
Al       1.50607636       0.94974319       2.46463700        0       1.15921386       0.62635203       1.50689865       1.24247575      -0.60704613       1.15697360
Al       0.01335470       1.75088039       5.06242871        1      -0.91111965       0.14825302      -0.88962593       0.51474738       0.69610661      -1.43088484
N        1.62637960       0.90489619       4.42127855        2      -0.14223589      -0.64065106       0.21498388      -0.71771818      -0.51824260      -0.07984816
N        0.02538011       1.82158367       1.88963025        3      -0.10585835      -0.13395397      -0.83225673      -1.03950489       0.42918214       0.35375974
4
Lattice="3.128588 0.0 0.0 -1.5642939988088433 2.709436998432005 0.0 0.0 0.0 5.016955" Properties=species:S:1:pos:R:3:spacegroup_kinds:I:1:momenta:R:3:forces:R:3 spacegroup="P 1" unit_cell=conventional occupancy="_JSON {\"0\": {\"Al\": 1}, \"1\": {\"Al\": 1}, \"2\": {\"N\": 1}, \"3\": {\"N\": 1}}" energy=-29.605009078979492 free_energy=-29.605009078979492 stress="0.0015956370625644922 -0.006785954814404249 -0.003095547901466489 -0.006785954814404249 0.0017805363750085235 0.0017242643516510725 -0.003095547901466489 0.0017242643516510725 -0.02311347983777523" pbc="T T T"
Al       1.56693925       0.93861030       2.54470911        0       1.44875343      -0.98943826       1.48437332      -0.01659270      -0.29131627      -1.20300829
Al      -0.01304569       1.78057347       4.99752451        1       0.01689786       1.11024925      -1.70729972       0.38438535       0.02358150       0.50760555
N        1.58384204       0.87104967       4.42155572        2      -0.67927456      -0.02704908      -0.19037134      -0.39236891       0.15177903      -0.39792523
N        0.00122209       1.81989282       1.85992052        3      -0.78637676      -0.09376191       0.41329764       0.02457624       0.11595567       1.09332788
4
Lattice="3.128588 0.0 0.0 -1.5642939988088433 2.709436998432005 0.0 0.0 0.0 5.016955" Properties=species:S:1:pos:R:3:spacegroup_kinds:I:1:momenta:R:3:forces:R:3 spacegroup="P 1" unit_cell=conventional occupancy="_JSON {\"0\": {\"Al\": 1}, \"1\": {\"Al\": 1}, \"2\": {\"N\": 1}, \"3\": {\"N\": 1}}" energy=-29.470205307006836 free_energy=-29.470205307006836 stress="0.003203156404197216 -0.01780151017010212 0.011838342063128948 -0.01780151017010212 -0.041348934173583984 0.007359892595559359 0.011838342063128948 0.007359892595559359 -0.005160239525139332" pbc="T T T"
Al       1.62755628       0.89950078       2.54516752        0       1.04970763      -0.99981888      -0.80202930      -1.41065121       0.15933247      -0.91778696
Al      -0.00757057       1.81703569       4.95606283        1      -0.03757945       0.11959796      -0.16512833      -0.26242462      -0.84351438       1.41445494
N        1.52756234       0.85151206       4.42065486        2      -0.42752229       0.29023121      -0.07965711       0.31765598       0.98894525      -0.00115261
N       -0.06966668       1.84442116       1.93994535        3      -0.58460595       0.58998975       1.04681472       1.35541975      -0.30476314      -0.49551553
4
Lattice="3.128588 0.0 0.0 -1.5642939988088433 2.709436998432005 0.0 0.0 0.0 5.016955" Properties=species:S:1:pos:R:3:spacegroup_kinds:I:1:momenta:R:3:forces:R:3 spacegroup="P 1" unit_cell=conventional occupancy="_JSON {\"0\": {\"Al\": 1}, \"1\": {\"Al\": 1}, \"2\": {\"N\": 1}, \"3\": {\"N\": 1}}" energy=-29.452987670898438 free_energy=-29.452987670898438 stress="-0.013225169852375984 -0.023750092834234238 0.00791146419942379 -0.023750092834234238 -0.04793180525302887 -0.007333266548812389 0.00791146419942379 -0.007333266548812389 0.02863287553191185" pbc="T T T"
Al       1.63184039       0.85684029       2.46693548        0      -0.97589087      -0.55899513      -1.34838408      -1.39010763       1.11026287       1.17303479
Al      -0.02377744       1.82170278       4.98999598        1      -0.28018830       0.45883587       1.28013578      -0.08532862       0.08283669       0.34697846
N        1.52792697       0.92957753       4.44479005        2       0.11446483       0.97873185       0.08012516       0.22036473      -0.17399015       0.05598868
N       -0.04718872       1.83921502       2.00086012        3       1.14161422      -0.87857254      -0.01187689       1.25507140      -1.01910949      -1.57600164
4
Lattice="3.128588 0.0 0.0 -1.5642939988088433 2.709436998432005 0.0 0.0 0.0 5.016955" Properties=species:S:1:pos:R:3:spacegroup_kinds:I:1:momenta:R:3:forces:R:3 spacegroup="P 1" unit_cell=conventional occupancy="_JSON {\"0\": {\"Al\": 1}, \"1\": {\"Al\": 1}, \"2\": {\"N\": 1}, \"3\": {\"N\": 1}}" energy=-29.53631591796875 free_energy=-29.53631591796875 stress="-0.019857672974467278 0.013828946277499199 -0.005717378109693527 0.013828946277499199 -0.0031641414389014244 -0.0016709843184798956 -0.005717378109693527 -0.0016709843184798956 -0.006260634399950504" pbc="T T T"
Al       1.56291505       0.86348350       2.43836894        0      -1.44558833       0.38889114       0.34074968       0.67285788       0.11609237       1.45909524
Al      -0.01834142       1.83613136       5.05736570        1       0.19731470      -0.00921494       1.04742139       0.06595417       0.15003502      -1.19267428
N        1.54726698       0.95741147       4.47045639        2      -0.01023968       0.05684993       0.14844044       0.09761249      -0.44420868      -0.65174711
N        0.05576966       1.77068660       1.90062729        3       1.25851322      -0.43652611      -1.53661156      -0.83642447       0.17808120       0.38532585
4
Lattice="3.128588 0.0 0.0 -1.5642939988088433 2.709436998432005 0.0 0.0 0.0 5.016955" Properties=species:S:1:pos:R:3:spacegroup_kinds:I:1:momenta:R:3:forces:R:3 spacegroup="P 1" unit_cell=conventional occupancy="_JSON {\"0\": {\"Al\": 1}, \"1\": {\"Al\": 1}, \"2\": {\"N\": 1}, \"3\": {\"N\": 1}}" energy=-29.5310001373291 free_energy=-29.5310001373291 stress="-0.018293945118784904 0.015707524493336678 -0.011607691645622253 0.015707524493336678 0.0031478521414101124 0.00460566533729434 -0.011607691645622253 0.00460566533729434 -0.01725897751748562" pbc="T T T"
Al       1.54701072       0.87273546       2.46070913        0       0.71855744      -0.11584414       0.49435371       1.07476664      -0.28505698       1.06925452
Al      -0.01761627       1.84389395       5.05391121        1       0.19346420       0.17720440      -0.69190173       0.23187667      -0.07942013      -1.16825151
N        1.56395352       0.94331119       4.45961398        2       0.32487435      -0.12409430      -0.51346199      -0.11547159      -0.20503154      -0.72920167
N        0.06831350       1.75176763       1.87546336        3      -1.23689604       0.06273408       0.71100995      -1.19117165       0.56950879       0.82819867
4
Lattice="3.128588 0.0 0.0 -1.5642939988088433 2.709436998432005 0.0 0.0 0.0 5.016955" Properties=species:S:1:pos:R:3:spacegroup_kinds:I:1:momenta:R:3:forces:R:3 spacegroup="P 1" unit_cell=conventional occupancy="_JSON {\"0\": {\"Al\": 1}, \"1\": {\"Al\": 1}, \"2\": {\"N\": 1}, \"3\": {\"N\": 1}}" energy=-29.613210678100586 free_energy=-29.613210678100586 stress="-0.008381517603993416 -0.004276683554053307 0.005492861848324537 -0.004276683554053307 -0.013936975970864296 0.0014804124366492033 0.005492861848324537 0.0014804124366492033 0.012475555762648582" pbc="T T T"
Al       1.57767907       0.87033375       2.48321564        0       0.42145910      -0.10086078       0.75449419      -0.50598758       0.14215389       0.64867598
Al       0.00878682       1.84488741       5.00616578        1       0.94842521       0.04829661      -0.67234726      -0.28191039      -0.37569699       0.05942941
N        1.54733737       0.91884311       4.41695259        2      -0.50233588      -0.06173813      -0.86681651       0.26756766       0.16352472       0.34766680
N       -0.02491944       1.77881445       1.96659663        3      -0.86754845       0.11430231       0.78466946       0.52033043       0.07001830      -1.05577230
4
Lattice="3.128588 0.0 0.0 -1.5642939988088433 2.709436998432005 0.0 0.0 0.0 5.016955" Properties=species:S:1:pos:R:3:spacegroup_kinds:I:1:momenta:R:3:forces:R:3 spacegroup="P 1" unit_cell=conventional occupancy="_JSON {\"0\": {\"Al\": 1}, \"1\": {\"Al\": 1}, \"2\": {\"N\": 1}, \"3\": {\"N\": 1}}" energy=-29.55784034729004 free_energy=-29.55784034729004 stress="-0.016363775357604027 -0.002947741188108921 0.012903849594295025 -0.002947741188108921 -0.006207993254065514 0.0015375785296782851 0.012903849594295025 0.0015375785296782851 -0.00271498947404325" pbc="T T T"
Al       1.59068814       0.88023426       2.52274585        0      -0.41625590       0.17887071       0.33160754      -0.90883827      -0.14031099      -0.36868444
Al       0.01872291       1.83477379       4.97781991        1       0.14973935      -0.20763030      -0.17578519      -0.72829705      -0.10046192       0.72653425
N        1.52039170       0.92489997       4.39464375        2       0.19754403       0.25939903       0.47781795       0.72475725      -0.09605103       0.71573639
N       -0.04216868       1.77342028       1.96745698        3       0.06897249      -0.23063946      -0.63364038       0.91237772       0.33682394      -1.07358575
4
Lattice="3.128588 0.0 0.0 -1.5642939988088433 2.709436998432005 0.0 0.0 0.0 5.016955" Properties=species:S:1:pos:R:3:spacegroup_kinds:I:1:momenta:R:3:forces:R:3 spacegroup="P 1" unit_cell=conventional occupancy="_JSON {\"0\": {\"Al\": 1}, \"1\": {\"Al\": 1}, \"2\": {\"N\": 1}, \"3\": {\"N\": 1}}" energy=-29.621110916137695 free_energy=-29.621110916137695 stress="-0.021500520408153534 0.005276264622807503 -0.003267425112426281 0.005276264622807503 0.010657936334609985 0.0019252396887168288 -0.003267425112426281 0.0019252396887168288 -0.001589893363416195" pbc="T T T"
Al       1.54767649       0.89587761       2.50832856        0      -0.85810034       0.46896550      -1.00003026       0.39160499      -0.39029196      -0.15031679
Al       0.00665801       1.82067518       5.00342495        1      -0.72966924      -0.11082616       1.46536749      -0.00950159       0.22696769       0.34862459
N        1.57185929       0.94293300       4.45440720        2       0.62349821      -0.37686543       0.64593188      -0.01969608      -0.43335134      -0.83889949
N        0.01256031       1.75229417       1.88600535        3       0.96427136       0.01872606      -1.11126924      -0.36240739       0.59667575       0.64059192
4
Lattice="3.128588 0.0 0.0 -1.5642939988088433 2.709436998432005 0.0 0.0 0.0 5.016955" Properties=species:S:1:pos:R:3:spacegroup_kinds:I:1:momenta:R:3:forces:R:3 spacegroup="P 1" unit_cell=conventional occupancy="_JSON {\"0\": {\"Al\": 1}, \"1\": {\"Al\": 1}, \"2\": {\"N\": 1}, \"3\": {\"N\": 1}}" energy=-29.520854949951172 free_energy=-29.520854949951172 stress="-0.014047136530280113 0.0118208397179842 -0.014255532063543797 0.0118208397179842 -0.005614864639937878 0.009361550211906433 -0.014255532063543797 0.009361550211906433 -0.019570916891098022" pbc="T T T"
Al       1.52999427       0.91403915       2.46474571        0       0.09545093      -0.23101269      -1.18071344       1.21875238      -0.63577008       0.99289739
Al      -0.00890653       1.82180735       5.05208965        1       0.31216926      -0.10747503       0.45537660       0.39472413      -0.38378632      -1.12710226
N        1.59437707       0.88605555       4.45928985        2      -0.04799028      -0.53350294      -0.20523286      -0.40810233       0.35579187      -0.79021519
N        0.05384448       1.77207216       1.87144998        3      -0.35962991       0.87199058       0.93056963      -1.20537436       0.66376430       0.92442000
4
Lattice="3.128588 0.0 0.0 -1.5642939988088433 2.709436998432005 0.0 0.0 0.0 5.016955" Properties=species:S:1:pos:R:3:spacegroup_kinds:I:1:momenta:R:3:forces:R:3 spacegroup="P 1" unit_cell=conventional occupancy="_JSON {\"0\": {\"Al\": 1}, \"1\": {\"Al\": 1}, \"2\": {\"N\": 1}, \"3\": {\"N\": 1}}" energy=-29.61878776550293 free_energy=-29.61878776550293 stress="0.010117592290043831 -0.0018219476332888007 -0.0018730321899056435 -0.0018219476332888007 -0.024783091619610786 0.0045910985209047794 -0.0018730321899056435 0.0045910985209047794 2.6385818273411132e-05" pbc="T T T"
Al       1.53818032       0.90928015       2.47247631        0       0.23228538      -0.27447287       1.41733288       0.21201000       0.18702185       0.85530841
Al       0.01802693       1.81430744       5.03506513        1       0.60360824      -0.42930293      -1.11140754       0.03760139      -0.69444132      -0.55142516
N        1.59518009       0.85128050       4.42414645        2       0.09084620       0.02420698      -0.77345501      -0.19470224       0.84070545       0.01228115
N       -0.01452984       1.83034436       1.92467358        3      -0.92673979       0.67956878       0.46752961      -0.05490905      -0.33328605      -0.31616461
4
Lattice="3.128588 0.0 0.0 -1.5642939988088433 2.709436998432005 0.0 0.0 0.0 5.016955" Properties=species:S:1:pos:R:3:spacegroup_kinds:I:1:momenta:R:3:forces:R:3 spacegroup="P 1" unit_cell=conventional occupancy="_JSON {\"0\": {\"Al\": 1}, \"1\": {\"Al\": 1}, \"2\": {\"N\": 1}, \"3\": {\"N\": 1}}" energy=-29.623743057250977 free_energy=-29.623743057250977 stress="0.004300268832594156 -0.008672663941979408 0.0028820051811635494 -0.008672663941979408 -0.006943852640688419 -0.004434542264789343 0.0028820051811635494 -0.004434542264789343 -0.014839041978120804" pbc="T T T"
Al       1.54321203       0.89379621       2.53645982        0      -0.00705431      -0.41529102       0.79444923      -0.25250307       0.39302850      -0.87834418
Al       0.03580900       1.79893952       4.98957805        1       0.09337879      -0.29525136      -0.61191864      -0.16601212       0.14058056       0.62745130
N        1.59619755       0.90645097       4.40111846        2      -0.02189774       1.09350649       0.27120784      -0.08899741      -0.09593673       0.34911180
N       -0.05911261       1.83464210       1.91219261        3      -0.06442671      -0.38296417      -0.45373854       0.50751269      -0.43767223      -0.09821873
