32
Lattice="6.17176593 0.0 0.0 0.0 8.01859859 0.0 0.0 0.0 13.03281824" Properties=species:S:1:pos:R:3:spacegroup_kinds:I:1:forces:R:3 spacegroup="P 1" unit_cell=conventional occupancy="_JSON {\"0\": {\"Li\": 1}, \"1\": {\"Li\": 1}, \"2\": {\"Li\": 1}, \"3\": {\"Li\": 1}, \"4\": {\"Li\": 1}, \"5\": {\"Li\": 1}, \"6\": {\"Li\": 1}, \"7\": {\"Li\": 1}, \"8\": {\"Li\": 1}, \"9\": {\"Li\": 1}, \"10\": {\"Li\": 1}, \"11\": {\"Li\": 1}, \"12\": {\"P\": 1}, \"13\": {\"P\": 1}, \"14\": {\"P\": 1}, \"15\": {\"P\": 1}, \"16\": {\"S\": 1}, \"17\": {\"S\": 1}, \"18\": {\"S\": 1}, \"19\": {\"S\": 1}, \"20\": {\"S\": 1}, \"21\": {\"S\": 1}, \"22\": {\"S\": 1}, \"23\": {\"S\": 1}, \"24\": {\"S\": 1}, \"25\": {\"S\": 1}, \"26\": {\"S\": 1}, \"27\": {\"S\": 1}, \"28\": {\"S\": 1}, \"29\": {\"S\": 1}, \"30\": {\"S\": 1}, \"31\": {\"S\": 1}}" energy=-140.3463134765625 free_energy=-140.3463134765625 stress="-0.0028885952197015285 -4.6164805311832424e-09 8.715717036977821e-09 -4.6164805311832424e-09 -0.0040722135454416275 3.8179792660741896e-09 8.715717036977821e-09 3.8179792660741896e-09 -0.0025935745798051357" pbc="T T T"
Li       2.40166816       0.26892250       4.33377963        0      -0.01549016       0.00236033       0.00063445
Li       3.77009789       7.74967601       8.69903845        1       0.01548977      -0.00236152      -0.00063178
Li       5.48755106       7.74967606       2.18262939        2      -0.01549301      -0.00236108      -0.00063205
Li       0.68421475       0.26892250      10.85018870        3       0.01549032       0.00235979       0.00063216
Li       3.77009789       4.27822187       8.69903840        4       0.01548811       0.00235905      -0.00063378
Li       2.40166817       3.74037678       4.33377961        5      -0.01548995      -0.00235950       0.00063320
Li       0.68421482       3.74037682      10.85018869        6       0.01549030      -0.00235960       0.00063147
Li       5.48755102       4.27822186       2.18262939        7      -0.01549191       0.00236060      -0.00062972
Li       3.08588290      -0.00000011       0.00000009        8      -0.00000126      -0.00000030       0.00000042
Li       0.00000000      -0.00000003       6.51640926        9       0.00000057       0.00000194      -0.00000168
Li       3.08588290       4.00929944       0.00000010       10      -0.00000171      -0.00000225      -0.00000018
Li       0.00000001       4.00929927       6.51640917       11       0.00000089       0.00000164       0.00000068
P        0.93932959       2.00464941       1.16793474       12      -0.00066720       0.00001059       0.03303546
P        5.23243631       6.01394884      11.86488423       13       0.00067250       0.00000071      -0.03306082
P        4.02521221       6.01394894       5.34847531       14      -0.00065134       0.00000034      -0.03306435
P        2.14655385       2.00464968       7.68434323       15       0.00065354       0.00000009       0.03305239
S        5.07612354       2.00464965       1.30682511       16       0.00280294       0.00000130       0.01274814
S        1.09564239       6.01394878      11.72599299       17      -0.00280877      -0.00000085      -0.01274674
S        1.99024093       6.01394892       5.20958392       18       0.00279299       0.00000079      -0.01274356
S        4.18152501       2.00464965       7.82323417       19      -0.00279222       0.00000017       0.01274700
S        1.68772171       2.00464967      12.25093565       20       0.03397120      -0.00000002       0.02524891
S        4.48404414       6.01394889       0.78188256       21      -0.03397383       0.00000010      -0.02523533
S        4.77360474       6.01394894       7.29829161       22       0.03397287       0.00000080      -0.02523515
S        1.39816134       2.00464968       5.73452690       23      -0.03397334      -0.00000052       0.02524048
S        1.68016701       0.28147987       2.00960379       24       0.02273533      -0.00259624      -0.01691886
S        4.49159902       7.73711922      11.02321403       25      -0.02272979       0.00258522       0.01692645
S        4.76604995       7.73711927       4.50680505       26       0.02272875       0.00258023       0.01692811
S        1.40571578       0.28147957       8.52601308       27      -0.02272816      -0.00258556      -0.01692847
S        4.49159894       4.29077882      11.02321433       28      -0.02273057      -0.00258625       0.01692519
S        1.68016716       3.72781970       2.00960388       29       0.02273110       0.00258673      -0.01692492
S        1.40571578       3.72781971       8.52601310       30      -0.02272706       0.00258545      -0.01692707
S        4.76604996       4.29077867       4.50680502       31       0.02272934      -0.00258221       0.01692978
