56
Lattice="10.7619164 0.0 0.0 -9.665296305262016 4.732958053065482 0.0 -0.5483100463354086 -2.3664790220718444 10.484177494289693" Properties=species:S:1:pos:R:3:spacegroup_kinds:I:1:forces:R:3 spacegroup="P 1" unit_cell=conventional occupancy="_JSON {\"0\": {\"H\": 1}, \"1\": {\"H\": 1}, \"2\": {\"H\": 1}, \"3\": {\"H\": 1}, \"4\": {\"H\": 1}, \"5\": {\"H\": 1}, \"6\": {\"H\": 1}, \"7\": {\"H\": 1}, \"8\": {\"H\": 1}, \"9\": {\"H\": 1}, \"10\": {\"H\": 1}, \"11\": {\"H\": 1}, \"12\": {\"H\": 1}, \"13\": {\"H\": 1}, \"14\": {\"H\": 1}, \"15\": {\"H\": 1}, \"16\": {\"H\": 1}, \"17\": {\"H\": 1}, \"18\": {\"H\": 1}, \"19\": {\"H\": 1}, \"20\": {\"H\": 1}, \"21\": {\"H\": 1}, \"22\": {\"H\": 1}, \"23\": {\"H\": 1}, \"24\": {\"H\": 1}, \"25\": {\"H\": 1}, \"26\": {\"H\": 1}, \"27\": {\"H\": 1}, \"28\": {\"H\": 1}, \"29\": {\"H\": 1}, \"30\": {\"H\": 1}, \"31\": {\"H\": 1}, \"32\": {\"C\": 1}, \"33\": {\"C\": 1}, \"34\": {\"C\": 1}, \"35\": {\"C\": 1}, \"36\": {\"C\": 1}, \"37\": {\"C\": 1}, \"38\": {\"C\": 1}, \"39\": {\"C\": 1}, \"40\": {\"C\": 1}, \"41\": {\"C\": 1}, \"42\": {\"C\": 1}, \"43\": {\"C\": 1}, \"44\": {\"C\": 1}, \"45\": {\"C\": 1}, \"46\": {\"C\": 1}, \"47\": {\"C\": 1}, \"48\": {\"O\": 1}, \"49\": {\"O\": 1}, \"50\": {\"O\": 1}, \"51\": {\"O\": 1}, \"52\": {\"O\": 1}, \"53\": {\"O\": 1}, \"54\": {\"O\": 1}, \"55\": {\"O\": 1}}" energy=-315.21038818359375 free_energy=-315.21038818359375 stress="0.0014446505811065435 -0.0005629282095469534 8.410208351961046e-08 -0.0005629282095469534 -0.0008545624441467226 -4.749228565970043e-08 8.410208351961046e-08 -4.749228565970043e-08 0.0015755912754684687" pbc="T T T"
H       -0.01146673       2.27735378       1.83228363        0       0.05954277      -0.00327671       0.06233811
H        0.46354042      -0.32622644       8.65189389        1      -0.05491745       0.02317551      -0.06235562
H        7.11783644      -0.62125595       5.76730111        2       0.06303574      -0.00415097      -0.05874506
H        3.54784284       0.20590515       4.71687608        3      -0.05845482       0.02398674       0.05874103
H        5.94073500       0.08912525       3.40980511        4      -0.05953854       0.00327735      -0.06233661
H        4.91741780       0.32622654       7.07437241        5       0.05491386      -0.02316903       0.06236499
H       -1.73687825       0.62125611       9.95896513        6      -0.06303801       0.00415781       0.05874538
H        2.38142538       2.16057390       0.52521270        7       0.05845485      -0.02398818      -0.05874284
H       -1.38551754       1.18149075       2.11598468        8      -0.01113741       0.08955082       0.00594877
H       -8.44966010       2.81824229       8.36819218        9       0.04931308       0.07553645      -0.00592625
H       -2.58205883       2.70548917       6.85853645       10       0.02489273       0.08117931       0.03102898
H       -6.70482302       3.66072964       3.62563947       11       0.01337832       0.08383578      -0.03101423
H       -3.44713062       1.18498829       3.12610408       12       0.01115930      -0.08955134      -0.00594394
H       -6.59659444       1.91471577       7.35807408       13      -0.04930665      -0.07554549       0.00593399
H       -1.70227922       2.02746897       8.86772962       14      -0.02490185      -0.08118934      -0.03099548
H       -7.79312147       3.43870742       1.61644925       15      -0.01337430      -0.08383934       0.03100633
H       -0.77623955       0.71965044       4.36329758       16      -0.01323393      -0.01213552       0.02308574
H        1.56195590       2.67141835       6.12088029       17       0.00653420      -0.01672766      -0.02309680
H       -0.46326719       1.89389613       6.16073603       18       0.01919707      -0.01968126       0.01018702
H        0.70065483      -0.86930480       4.32344242       19      -0.02583048      -0.00920679      -0.01018436
H        6.70550784       1.64682866       0.87879113       20       0.01323204       0.01213419      -0.02308416
H       -5.84629405       2.06153966       9.60538592       21      -0.00653607       0.01672578       0.02309452
H        5.84422537      -1.89389611       9.56553024       22      -0.01918977       0.01966889      -0.01017741
H       -5.53330302       3.23578383       0.91864626       23       0.02584054       0.00921518       0.01018908
H        0.25118892       0.51320651       1.94904363       24      -0.01401114      -0.01703084      -0.02868515
H       -0.54820845      -1.79509607       8.53513266       25       0.00518289      -0.02145649       0.02868149
H       -2.80824660       2.46883416       5.11321220       26      -0.03240755      -0.01272121       0.00990927
H       -6.60574339       3.34870704       5.37096440       27       0.02347654      -0.02566500      -0.00992791
H       -5.08383701       1.85327247       3.29304511       28       0.01400454       0.01703801       0.02868870
H       -4.83274950       1.79509621       7.19113352       29      -0.00520886       0.02144438      -0.02866577
H       -0.92778153       4.63060281       0.12887635       30       0.03240953       0.01272159      -0.00991084
H        2.32140525       1.38425107      10.35530180       31      -0.02347627       0.02567166       0.00991831
C       -0.12855713       1.44666453       3.84724417       32      -0.06474343      -0.02297428       0.02711266
C        0.20337420      -1.12376650       6.63693320       33       0.04808376      -0.04911448      -0.02706042
C       -0.77313049       2.84277401       5.69386795       34       0.01803106      -0.04222222       0.05796037
C        1.39625479      -0.15339356       4.79030936       35      -0.03474346      -0.02990967      -0.05791879
C        6.05782526       0.91981439       1.39484461       36       0.06475931       0.02297536      -0.02710626
C       -5.58433220       1.12376663       9.08933302       37      -0.04809066       0.04911453       0.02707824
C       -3.51120741       1.89018400      10.03239813       38      -0.01806915       0.04223123      -0.05796707
C        4.53301351       2.51987246       0.45177956       39       0.03474656       0.02992392       0.05790970
C       -0.32629465       1.35816529       2.34320610       40       0.01375133       0.00372820      -0.01267971
C        0.34204072      -1.29021281       8.14097361       41      -0.01071781       0.00947013       0.01263653
C       -2.26788800       3.05478920       5.86652619       42      -0.01084319       0.00948878      -0.01264021
C        2.83194261      -0.62035933       4.61765399       43       0.01386537       0.00375840       0.01261473
C        6.25556282       1.00831378       2.89888262       44      -0.01376845      -0.00373772       0.01266685
C       -5.72299918       1.29021260       7.58529266       45       0.01074491      -0.00945106      -0.01267772
C       -2.01645025       1.67816877       9.85974052       46       0.01086672      -0.00949039       0.01260955
C        3.09732573       2.98683830       0.62443475       47      -0.01388502      -0.00376010      -0.01259640
O       -0.42617556       2.75832689       4.28195553       48      -0.00160916      -0.01560195      -0.00607040
O        1.04750942      -0.07664207       6.20222129       49      -0.00535001      -0.01474537       0.00606341
O       -1.17299329      -0.80891946       6.27987373       50      -0.00940034      -0.01381683      -0.00193596
O        1.24603230       1.12411994       4.20430307       51       0.00225567      -0.01656784       0.00193422
O       -3.30985251       4.34111018       0.96013317       52       0.00160886       0.01560330       0.00605951
O        4.33344869       0.07664207       9.52404499       53       0.00535032       0.01474300      -0.00606561
O       -4.20796491       0.80891948       9.44639258       54       0.00941734       0.01382501       0.00193503
O        4.68323599       1.24235915       1.03778562       55      -0.00226573       0.01654567      -0.00193142
