32
Lattice="6.17176593 0.0 0.0 0.0 8.01859859 0.0 0.0 0.0 13.03281824" Properties=species:S:1:pos:R:3:spacegroup_kinds:I:1:momenta:R:3:forces:R:3 spacegroup="P 1" unit_cell=conventional occupancy="_JSON {\"0\": {\"Li\": 1}, \"1\": {\"Li\": 1}, \"2\": {\"Li\": 1}, \"3\": {\"Li\": 1}, \"4\": {\"Li\": 1}, \"5\": {\"Li\": 1}, \"6\": {\"Li\": 1}, \"7\": {\"Li\": 1}, \"8\": {\"Li\": 1}, \"9\": {\"Li\": 1}, \"10\": {\"Li\": 1}, \"11\": {\"Li\": 1}, \"12\": {\"P\": 1}, \"13\": {\"P\": 1}, \"14\": {\"P\": 1}, \"15\": {\"P\": 1}, \"16\": {\"S\": 1}, \"17\": {\"S\": 1}, \"18\": {\"S\": 1}, \"19\": {\"S\": 1}, \"20\": {\"S\": 1}, \"21\": {\"S\": 1}, \"22\": {\"S\": 1}, \"23\": {\"S\": 1}, \"24\": {\"S\": 1}, \"25\": {\"S\": 1}, \"26\": {\"S\": 1}, \"27\": {\"S\": 1}, \"28\": {\"S\": 1}, \"29\": {\"S\": 1}, \"30\": {\"S\": 1}, \"31\": {\"S\": 1}}" energy=-140.14605712890625 free_energy=-140.14605712890625 stress="-0.0007555087213404477 0.0013280760031193495 -0.0003919195441994816 0.0013280760031193495 -0.0005645265919156373 -0.0007952291634865105 -0.0003919195441994816 -0.0007952291634865105 -0.0013345703482627869" pbc="T T T"
Li       2.45763107       0.36116612       4.25841656        0      -0.02077434      -0.09590084      -0.00637142       0.02038428      -0.08815353       0.21621375
Li       3.74171843       7.64058966       8.65439282        1      -0.14574546      -0.08795691      -0.26960054      -0.03937739       0.22357059       0.00557629
Li       5.49546297       7.71136689       2.13185660        2       0.30938260       0.27164711      -0.10377519      -0.00487310       0.10003916       0.14175738
Li       0.69346892       0.30178819      10.76704401        3      -0.15875580       0.03296696       0.20472723      -0.07841893       0.00912511       0.27452597
Li       3.80016797       4.36639362       8.72213847        4      -0.06129081       0.19140164       0.11479435      -0.15391308      -0.24263760       0.05347759
Li       2.33325072       3.75941164       4.29664713        5      -0.34929052      -0.10445426      -0.18473107       0.02552856      -0.02153931       0.12608461
Li       0.70810361       3.77542162      10.86863576        6       0.10774000      -0.19323379       0.11328307      -0.01449121      -0.03665621      -0.08799426
Li       5.46191243       4.18791942       2.10335833        7      -0.16321066      -0.39631129      -0.10032593       0.01124211       0.19987747       0.18641001
Li       3.14496174       0.02342922       0.07742259        8       0.21641623       0.23893312       0.34966600       0.04141629       0.04034537      -0.12686822
Li       0.11986068      -0.06424143       6.48623959        9       0.15745990      -0.24603041       0.05479394      -0.02157184      -0.06279316      -0.03844478
Li       2.91683899       4.13552329      -0.05774458       10      -0.27843038       0.26020422      -0.44631423       0.07338408       0.08178634      -0.01194986
Li      -0.14020903       3.91503570       6.50231808       11      -0.54034161      -0.23243502       0.13279401       0.08405674      -0.08125865       0.16232324
P        0.94727140       1.97421300       1.16438731       12      -0.09181948      -0.53935676      -0.19687669       0.18986219       0.55130416      -0.08718281
P        5.22794519       6.03011472      11.85715859       13       0.06875291       0.11699209      -0.55213007      -0.22327757      -0.20857982      -0.16415967
P        4.01654372       6.00285217       5.35690216       14      -0.10099108      -0.16970849       0.13448142       0.23204868      -0.12362938      -0.15828553
P        2.16255811       2.01972426       7.68537154       15       0.06719964       1.03885338       0.86759997      -0.13640448       0.22573105      -0.01328845
S        5.07641969       2.01530102       1.29862987       16      -0.09300070      -0.23628862      -0.53323271       0.21701230      -0.31406981      -0.09905792
S        1.08834569       6.06698406      11.73329829       17       0.17713699       0.72625279       0.30396779       0.08937845      -0.04298909      -0.08543305
S        1.97909054       5.98678542       5.24739256       18      -0.05678128      -0.31864346       0.79253233       0.19822668       0.36968210      -0.08085268
S        4.18132090       2.03359528       7.81562592       19       0.60428394       0.26922509       0.28698395       0.11601871      -0.20799729       0.06031843
S        1.75390826       2.02409970      12.23547884       20       0.76529415       0.27593428       0.12132223      -0.25378340      -0.12668045       0.44565794
S        4.53865528       6.02306566       0.80060537       21       0.30689474       0.08717143      -0.25288091      -0.22703668      -0.06083103      -0.23510616
S        4.78951627       5.96602908       7.32044074       22      -0.01856075      -0.42811483      -0.52506859       0.08496599       0.23386547      -0.40167445
S        1.36744699       2.03634073       5.75432309       23      -0.76214532       0.23158893       0.00620921       0.07860062      -0.22502142      -0.15734197
S        1.66185025       0.24821647       2.02547765       24       0.17408876      -0.21952795       0.34644221       0.02966441       0.11337063      -0.18607955
S        4.43792787       7.72132611      10.97881611       25      -0.80525710      -0.26454884      -0.08831772       0.16480798      -0.10431138       0.21990986
S        4.83339548       7.73167294       4.50232492       26       0.71496242       0.00310324       0.12732099      -0.33904165      -0.46991444       0.22171549
S        1.36839721       0.33227111       8.54519299       27      -0.30937353       0.31380090       0.12370203       0.17617515      -0.26172525      -0.20091802
S        4.49376833       4.27225425      11.02258111       28       0.41770346      -0.26894941       0.64366877       0.11070499       0.30731481       0.24488211
S        1.69513357       3.75001413       2.02076489       29       0.10824905       0.31838006      -0.40225668      -0.25401664      -0.53546584      -0.32096010
S        1.41456326       3.72249362       8.51530371       30       0.00264339       0.02762300      -0.77076659      -0.12972221       0.30841953       0.15520653
S        4.71158417       4.22378706       4.52428965       31      -0.24243937      -0.60261736      -0.29164115      -0.06755002       0.44982177      -0.05846176
