32
Lattice="6.17176593 0.0 0.0 0.0 8.01859859 0.0 0.0 0.0 13.03281824" Properties=species:S:1:pos:R:3:spacegroup_kinds:I:1:momenta:R:3:forces:R:3 spacegroup="P 1" unit_cell=conventional occupancy="_JSON {\"0\": {\"Li\": 1}, \"1\": {\"Li\": 1}, \"2\": {\"Li\": 1}, \"3\": {\"Li\": 1}, \"4\": {\"Li\": 1}, \"5\": {\"Li\": 1}, \"6\": {\"Li\": 1}, \"7\": {\"Li\": 1}, \"8\": {\"Li\": 1}, \"9\": {\"Li\": 1}, \"10\": {\"Li\": 1}, \"11\": {\"Li\": 1}, \"12\": {\"P\": 1}, \"13\": {\"P\": 1}, \"14\": {\"P\": 1}, \"15\": {\"P\": 1}, \"16\": {\"S\": 1}, \"17\": {\"S\": 1}, \"18\": {\"S\": 1}, \"19\": {\"S\": 1}, \"20\": {\"S\": 1}, \"21\": {\"S\": 1}, \"22\": {\"S\": 1}, \"23\": {\"S\": 1}, \"24\": {\"S\": 1}, \"25\": {\"S\": 1}, \"26\": {\"S\": 1}, \"27\": {\"S\": 1}, \"28\": {\"S\": 1}, \"29\": {\"S\": 1}, \"30\": {\"S\": 1}, \"31\": {\"S\": 1}}" energy=-140.31869506835938 free_energy=-140.31869506835938 stress="-0.007170635275542736 -1.4624548239083879e-09 1.7471865065843417e-09 -1.4624548239083879e-09 -0.008259419351816177 -9.540877421443383e-09 1.7471865065843417e-09 -9.540877421443383e-09 -0.00526629202067852" pbc="T T T"
Li       2.40329652       0.26860172       4.33400832        0       0.00000000       0.00000000       0.00000000      -0.02603537       0.00549162      -0.00432139
Li       3.76846941       7.74999687       8.69880992        1       0.00000000       0.00000000       0.00000000       0.02603672      -0.00549209       0.00432333
Li       5.48917948       7.74999687       2.18240080        2       0.00000000       0.00000000       0.00000000      -0.02603646      -0.00549034       0.00432323
Li       0.68258645       0.26860172      10.85041744        3       0.00000000       0.00000000       0.00000000       0.02603569       0.00549223      -0.00431983
Li       3.76846941       4.27790102       8.69880992        4       0.00000000       0.00000000       0.00000000       0.02603596       0.00549155       0.00432277
Li       2.40329652       3.74069757       4.33400832        5       0.00000000       0.00000000       0.00000000      -0.02603541      -0.00549179      -0.00432191
Li       0.68258645       3.74069757      10.85041744        6       0.00000000       0.00000000       0.00000000       0.02603570      -0.00549147      -0.00431957
Li       5.48917948       4.27790102       2.18240080        7       0.00000000       0.00000000       0.00000000      -0.02603593       0.00549094       0.00432257
Li       3.08588297       0.00000000       0.00000000        8       0.00000000       0.00000000       0.00000000      -0.00000004      -0.00000159       0.00000009
Li       0.00000000       0.00000000       6.51640912        9       0.00000000       0.00000000       0.00000000      -0.00000018      -0.00000003       0.00000040
Li       3.08588297       4.00929929       0.00000000       10       0.00000000       0.00000000       0.00000000      -0.00000099       0.00000255      -0.00000036
Li       0.00000000       4.00929929       6.51640912       11       0.00000000       0.00000000       0.00000000       0.00000089       0.00000199      -0.00000027
P        0.94051010       2.00464965       1.16601784       12       0.00000000       0.00000000       0.00000000      -0.02067244      -0.00000042       0.02376068
P        5.23125583       6.01394894      11.86680040       13       0.00000000       0.00000000       0.00000000       0.02066597      -0.00000059      -0.02375935
P        4.02639307       6.01394894       5.35039128       14       0.00000000       0.00000000       0.00000000      -0.02066715       0.00000144      -0.02375694
P        2.14537286       2.00464965       7.68242696       15       0.00000000       0.00000000       0.00000000       0.02066800       0.00000047       0.02375724
S        5.08970823       2.00464965       1.30575389       16       0.00000000       0.00000000       0.00000000      -0.25450596       0.00000059       0.01679019
S        1.08205770       6.01394894      11.72706435       17       0.00000000       0.00000000       0.00000000       0.25450724      -0.00000026      -0.01679217
S        2.00382526       6.01394894       5.21065523       18       0.00000000       0.00000000       0.00000000      -0.25450566      -0.00000093      -0.01679148
S        4.16794067       2.00464965       7.82216301       19       0.00000000       0.00000000       0.00000000       0.25450161      -0.00000069       0.01679032
S        1.68132889       2.00464965      12.25955363       20       0.00000000       0.00000000       0.00000000       0.10912284       0.00000048      -0.16719615
S        4.49043704       6.01394894       0.77326461       21       0.00000000       0.00000000       0.00000000      -0.10912079      -0.00000017       0.16718131
S        4.76721186       6.01394894       7.28967373       22       0.00000000       0.00000000       0.00000000       0.10912076      -0.00000016       0.16717935
S        1.40455407       2.00464965       5.74314451       23       0.00000000       0.00000000       0.00000000      -0.10911971       0.00000013      -0.16718090
S        1.67233151       0.29287049       2.00524453       24       0.00000000       0.00000000       0.00000000       0.13957870      -0.21272677       0.08709878
S        4.49943442       7.72572810      11.02757371       25       0.00000000       0.00000000       0.00000000      -0.13957521       0.21272425      -0.08709393
S        4.75821447       7.72572810       4.51116459       26       0.00000000       0.00000000       0.00000000       0.13957475       0.21272413      -0.08709239
S        1.41355146       0.29287049       8.52165365       27       0.00000000       0.00000000       0.00000000      -0.13957594      -0.21272144       0.08709056
S        4.49943442       4.30216979      11.02757371       28       0.00000000       0.00000000       0.00000000      -0.13957779      -0.21272552      -0.08709314
S        1.67233151       3.71642880       2.00524453       29       0.00000000       0.00000000       0.00000000       0.13957913       0.21272632       0.08709936
S        1.41355146       3.71642880       8.52165365       30       0.00000000       0.00000000       0.00000000      -0.13957506       0.21272087       0.08709253
S        4.75821447       4.30216979       4.51116459       31       0.00000000       0.00000000       0.00000000       0.13957611      -0.21272530      -0.08709312
32
Lattice="6.17176593 0.0 0.0 0.0 8.01859859 0.0 0.0 0.0 13.03281824" Properties=species:S:1:pos:R:3:spacegroup_kinds:I:1:momenta:R:3:forces:R:3 spacegroup="P 1" unit_cell=conventional occupancy="_JSON {\"0\": {\"Li\": 1}, \"1\": {\"Li\": 1}, \"2\": {\"Li\": 1}, \"3\": {\"Li\": 1}, \"4\": {\"Li\": 1}, \"5\": {\"Li\": 1}, \"6\": {\"Li\": 1}, \"7\": {\"Li\": 1}, \"8\": {\"Li\": 1}, \"9\": {\"Li\": 1}, \"10\": {\"Li\": 1}, \"11\": {\"Li\": 1}, \"12\": {\"P\": 1}, \"13\": {\"P\": 1}, \"14\": {\"P\": 1}, \"15\": {\"P\": 1}, \"16\": {\"S\": 1}, \"17\": {\"S\": 1}, \"18\": {\"S\": 1}, \"19\": {\"S\": 1}, \"20\": {\"S\": 1}, \"21\": {\"S\": 1}, \"22\": {\"S\": 1}, \"23\": {\"S\": 1}, \"24\": {\"S\": 1}, \"25\": {\"S\": 1}, \"26\": {\"S\": 1}, \"27\": {\"S\": 1}, \"28\": {\"S\": 1}, \"29\": {\"S\": 1}, \"30\": {\"S\": 1}, \"31\": {\"S\": 1}}" energy=-140.31919860839844 free_energy=-140.31919860839844 stress="-0.007004722487181425 7.827708031982183e-05 -2.622968850118923e-06 7.827708031982183e-05 -0.008245513774454594 -5.360502836992964e-05 -2.622968850118923e-06 -5.360502836992964e-05 -0.005243263207376003" pbc="T T T"
Li       2.40146330       0.27088469       4.33398282        0      -0.12725544       0.13727372      -0.10216670      -0.02077638      -0.00269189      -0.00401594
Li       3.76735152       7.75092596       8.69872923        1      -0.09204103       0.02266225      -0.05198915       0.02979225      -0.00800908       0.00272560
Li       5.48806877       7.74936776       2.18067789        2      -0.09528483       0.00309560      -0.06080022      -0.02177769      -0.00177467       0.00627454
Li       0.68310104       0.26909550      10.84859148        3       0.04420614       0.06116856      -0.06979944       0.02353016       0.00689953      -0.00121601
Li       3.76745076       4.27925380       8.69858038        4      -0.01456267       0.14315873       0.03022586       0.02577494       0.00458483       0.00416903
Li       2.40442114       3.74177027       4.33457304        5       0.00399298       0.02581934       0.04135920      -0.03195334      -0.00698184      -0.00319831
Li       0.68213895       3.74321751      10.85148155        6      -0.03743041       0.10880922       0.07212521       0.02966872      -0.01073677      -0.00927809
Li       5.48815780       4.28013198       2.18070175        7      -0.09165520       0.14836953      -0.05660741      -0.02157493      -0.00198370       0.00813595
Li       3.08663502      -0.00030393      -0.00193636        8       0.07845576       0.05517603       0.00390148      -0.00434458       0.00293070       0.00588954
Li      -0.00014076       0.00001845       6.51310424        9       0.01964740       0.00275257      -0.16343295       0.00260039      -0.00183742       0.00621162
Li       3.08507189       4.00989620      -0.00224512       10      -0.08497141       0.10214759      -0.08243142      -0.00140222      -0.00064391       0.00517106
Li      -0.00199969       4.00825069       6.51732466       11      -0.12584409      -0.00875191       0.01706577       0.00431267       0.00086364       0.00429765
P        0.94078933       2.00444405       1.16639711       12       0.04328045      -0.02296366       0.04976629      -0.03301022       0.00535139       0.03082456
P        5.23120160       6.01408793      11.86730010       13      -0.11075209      -0.02168176       0.08390550       0.01802910      -0.00532104      -0.03203641
P        4.02779359       6.01299976       5.34961372       14       0.27868603      -0.18383049      -0.00727954      -0.07365816       0.04294119      -0.00114241
P        2.14617991       2.00315052       7.68132867       15       0.27467451      -0.27954980      -0.20623968       0.00271294       0.01613501       0.04557381
S        5.08875740       2.00433624       1.30703672       16      -0.19198562      -0.11064824       0.16569510      -0.23381810       0.00403959       0.01381983
S        1.08224990       6.01496986      11.72637816       17       0.04475662       0.23789544      -0.16599696       0.24941026       0.00013636      -0.01432899
S        2.00236156       6.01370964       5.21101518       18      -0.25449405       0.02856053       0.04695509      -0.21297486       0.00431553      -0.01739781
S        4.16766669       2.00545123       7.82153796       19       0.07535908       0.06408750      -0.15427237       0.27141055      -0.00629770       0.01482067
S        1.68154138       2.00545769      12.25975412       20       0.03730923       0.14686530      -0.03381159       0.10477395      -0.00084276      -0.16534075
S        4.49086195       6.01459289       0.77421655       21       0.12120626       0.05349453       0.15762519      -0.11146913      -0.00328096       0.15533933
S        4.76754506       6.01395632       7.28997958       22       0.07123640      -0.03240248       0.01583192       0.10701755       0.00484534       0.15789810
S        1.40371223       2.00474761       5.74389761       23      -0.14226183      -0.03672896       0.12456132      -0.11064923      -0.00077021      -0.18418978
S        1.67245955       0.29259210       2.00557327       24       0.07650992      -0.04441359       0.21675535       0.13832997      -0.21115340       0.08109511
S        4.49850684       7.72568688      11.02767735       25      -0.31668992       0.00113884       0.01758285      -0.13358936       0.20742448      -0.08638944
S        4.75894996       7.72522920       4.50918893       26       0.35489228      -0.24439949      -0.43340031       0.13049814       0.20518467      -0.08131602
S        1.41366293       0.29219368       8.52178571       27      -0.02469937      -0.03547350      -0.03977141      -0.13918424      -0.21333326       0.07945274
S        4.49984001       4.30129656      11.02710728       28       0.16054561      -0.24346063      -0.06906010      -0.13546321      -0.19680598      -0.07721014
S        1.67295199       3.71632623       2.00677632       29       0.04785373       0.02142570       0.34206586       0.13301316       0.20614685       0.07824568
S        1.41457025       3.71545056       8.52104618       30       0.18125343      -0.17746247      -0.03184758      -0.14335759       0.20879835       0.08867269
S        4.75757056       4.30311952       4.51265166       31      -0.20393786       0.07786600       0.34348481       0.15812843      -0.24813300      -0.11155748
32
Lattice="6.17176593 0.0 0.0 0.0 8.01859859 0.0 0.0 0.0 13.03281824" Properties=species:S:1:pos:R:3:spacegroup_kinds:I:1:momenta:R:3:forces:R:3 spacegroup="P 1" unit_cell=conventional occupancy="_JSON {\"0\": {\"Li\": 1}, \"1\": {\"Li\": 1}, \"2\": {\"Li\": 1}, \"3\": {\"Li\": 1}, \"4\": {\"Li\": 1}, \"5\": {\"Li\": 1}, \"6\": {\"Li\": 1}, \"7\": {\"Li\": 1}, \"8\": {\"Li\": 1}, \"9\": {\"Li\": 1}, \"10\": {\"Li\": 1}, \"11\": {\"Li\": 1}, \"12\": {\"P\": 1}, \"13\": {\"P\": 1}, \"14\": {\"P\": 1}, \"15\": {\"P\": 1}, \"16\": {\"S\": 1}, \"17\": {\"S\": 1}, \"18\": {\"S\": 1}, \"19\": {\"S\": 1}, \"20\": {\"S\": 1}, \"21\": {\"S\": 1}, \"22\": {\"S\": 1}, \"23\": {\"S\": 1}, \"24\": {\"S\": 1}, \"25\": {\"S\": 1}, \"26\": {\"S\": 1}, \"27\": {\"S\": 1}, \"28\": {\"S\": 1}, \"29\": {\"S\": 1}, \"30\": {\"S\": 1}, \"31\": {\"S\": 1}}" energy=-140.3190155029297 free_energy=-140.3190155029297 stress="-0.006670796778053045 0.00018879518029280007 -8.308646647492424e-05 0.00018879518029280007 -0.008097225800156593 -0.00011687260121107101 -8.308646647492424e-05 -0.00011687260121107101 -0.005260254722088575" pbc="T T T"
Li       2.39737606       0.27730778       4.33071380        0      -0.06702403       0.20851258      -0.11180831      -0.00240904      -0.02322412       0.00317759
Li       3.76207055       7.74920205       8.69740772        1      -0.20276572      -0.06789383      -0.01576757       0.03866641      -0.00605254      -0.00018460
Li       5.48595343       7.74696522       2.17596398        2      -0.09220388      -0.12671977      -0.07516524      -0.01214890       0.00819906       0.01434378
Li       0.68488382       0.27064885      10.84440354        3       0.03936133       0.04297432      -0.19467453       0.01727605       0.00580064       0.00807918
Li       3.76639172       4.28456388       8.70083160        4       0.00629309       0.17434242       0.07546170       0.02187173      -0.00437314       0.00000669
Li       2.40608439       3.74295611       4.33529559        5       0.04913424       0.03106688       0.01865161      -0.04084258      -0.00682301      -0.00089654
Li       0.68143925       3.74708093      10.85313306        6      -0.01528860       0.15210278       0.03921147       0.03658636      -0.01829882      -0.01598656
Li       5.48273637       4.28556725       2.17729592        7      -0.11145694       0.13050676      -0.10158336      -0.00699197      -0.02202370       0.01851151
Li       3.08972723       0.00252381      -0.00258231        8       0.08697413       0.12814658      -0.01420662      -0.00985170       0.00586955       0.01327734
Li       0.00242156      -0.00003275       6.50705928        9       0.08257551      -0.01028393      -0.17323314       0.00368340      -0.00691085       0.01448538
Li       3.08155930       4.01354382      -0.00242561       10      -0.18530610       0.07392207       0.08561593      -0.00116153      -0.00125201       0.00363321
Li      -0.00462637       4.00707834       6.51684772       11       0.01031797      -0.06070451      -0.05975155       0.01322964       0.00055920       0.01559496
P        0.94102734       2.00419570       1.16696080       12       0.05762812      -0.02318966       0.05888862      -0.04971091       0.00215537       0.04760940
P        5.22910963       6.01509707      11.86790553       13      -0.34745946       0.18308666       0.09391044       0.04607112      -0.03544484      -0.05135170
P        4.03004287       6.01177048       5.34946142       14       0.28201537      -0.17377167      -0.07513167      -0.14715846       0.10643548      -0.00050758
P        2.14841860       2.00078035       7.67867706       15       0.32979597      -0.24527530      -0.45472543      -0.03455996       0.05987386       0.09983067
S        5.08684448       2.00342890       1.30854860       16      -0.26306933      -0.09179519       0.25911252      -0.19681124       0.00979027       0.00829162
S        1.08166988       6.01667741      11.72454695       17      -0.17245584       0.27135080      -0.24345919       0.22917533       0.00402526      -0.00793083
S        2.00069534       6.01395266       5.21188847       18      -0.23501002      -0.02826975       0.16895038      -0.15597129       0.01416420      -0.02016243
S        4.16763088       2.00698850       7.82084147       19      -0.01526476       0.31717873       0.09136975       0.29737782      -0.01983867       0.01422923
S        1.68321732       2.00616878      12.26048664       20       0.23329525       0.04905451       0.11487040       0.09441665      -0.00007259      -0.15733963
S        4.49269983       6.01525953       0.77643812       21       0.37271194       0.09100617       0.27236970      -0.12638456      -0.00240379       0.13178846
S        4.76809650       6.01376408       7.28929785       22       0.12561577      -0.13520033      -0.06290839       0.11242135       0.01451509       0.16743678
S        1.40337603       2.00431361       5.74461079       23      -0.06632501       0.01046547       0.23610529      -0.11556417       0.00207625      -0.21257526
S        1.67298891       0.29195241       2.00803327       24      -0.02031384      -0.18238910       0.30681210       0.12768584      -0.19565181       0.05582957
S        4.49617965       7.72503618      11.02682717       25      -0.17534640      -0.09710463      -0.18609934      -0.13044365       0.21033007      -0.08628758
S        4.76269452       7.72370674       4.50568726       26       0.56596659      -0.22458318      -0.30577209       0.10413785       0.18663174      -0.06893778
S        1.41219231       0.29228005       8.52217626       27      -0.30621752       0.04947858       0.02072808      -0.13406575      -0.21456018       0.06235667
S        4.50107829       4.29926155      11.02616278       28       0.11368237      -0.28641423      -0.35289636      -0.13692456      -0.16646770      -0.05049499
S        1.67285718       3.71632688       2.00964544       29      -0.16314420       0.00338395       0.36503461       0.11729531       0.19648378       0.06559423
S        1.41616536       3.71429484       8.52103651       30       0.27475213      -0.15828403      -0.08806829      -0.14219783       0.18811019       0.07516883
S        4.75582186       4.30325624       4.51539773       31      -0.19146808      -0.00470014       0.30815842       0.18330318      -0.29162210      -0.14658971
32
Lattice="6.17176593 0.0 0.0 0.0 8.01859859 0.0 0.0 0.0 13.03281824" Properties=species:S:1:pos:R:3:spacegroup_kinds:I:1:momenta:R:3:forces:R:3 spacegroup="P 1" unit_cell=conventional occupancy="_JSON {\"0\": {\"Li\": 1}, \"1\": {\"Li\": 1}, \"2\": {\"Li\": 1}, \"3\": {\"Li\": 1}, \"4\": {\"Li\": 1}, \"5\": {\"Li\": 1}, \"6\": {\"Li\": 1}, \"7\": {\"Li\": 1}, \"8\": {\"Li\": 1}, \"9\": {\"Li\": 1}, \"10\": {\"Li\": 1}, \"11\": {\"Li\": 1}, \"12\": {\"P\": 1}, \"13\": {\"P\": 1}, \"14\": {\"P\": 1}, \"15\": {\"P\": 1}, \"16\": {\"S\": 1}, \"17\": {\"S\": 1}, \"18\": {\"S\": 1}, \"19\": {\"S\": 1}, \"20\": {\"S\": 1}, \"21\": {\"S\": 1}, \"22\": {\"S\": 1}, \"23\": {\"S\": 1}, \"24\": {\"S\": 1}, \"25\": {\"S\": 1}, \"26\": {\"S\": 1}, \"27\": {\"S\": 1}, \"28\": {\"S\": 1}, \"29\": {\"S\": 1}, \"30\": {\"S\": 1}, \"31\": {\"S\": 1}}" energy=-140.3164520263672 free_energy=-140.3164520263672 stress="-0.006256836000829935 0.000336439348757267 -0.00016767838678788394 0.000336439348757267 -0.007875548675656319 -0.00011847631685668603 -0.00016767838678788394 -0.00011847631685668603 -0.005328921601176262" pbc="T T T"
Li       2.39827511       0.28538921       4.32580443        0       0.04677907       0.26853813      -0.19182234       0.00717901      -0.04380922       0.01378210
Li       3.75420649       7.74694929       8.69786668        1      -0.20812854      -0.07734617      -0.01930245       0.05224494      -0.00297876      -0.01102125
Li       5.48287386       7.74309849       2.17260302        2      -0.10926422      -0.11737792      -0.12041510      -0.00113220       0.02246021       0.01971123
Li       0.68645957       0.27285518      10.83598397        3       0.02221059       0.06600587      -0.26658322       0.01031558       0.00382232       0.02534828
Li       3.76810392       4.29180494       8.70294414        4       0.11596333       0.20722240      -0.00936979       0.01130785      -0.01829819      -0.00504964
Li       2.40823704       3.74664822       4.33706568        5       0.05313912       0.13948103       0.01101099      -0.05186820      -0.01250049      -0.00171001
Li       0.68178001       3.75214385      10.85389234        6       0.04837060       0.15734475       0.00388251       0.03913678      -0.02524497      -0.02209160
Li       5.47867790       4.28887529       2.17552607        7      -0.12461453       0.02926193       0.01476052       0.00271592      -0.03666072       0.02429852
Li       3.09059282       0.00620143      -0.00166697        8      -0.01176790       0.05696459       0.09756397      -0.00897535       0.00555572       0.01077410
Li       0.00797335      -0.00207425       6.49877696        9       0.25593379      -0.05243815      -0.22470568       0.00389890      -0.01608103       0.03093246
Li       3.07344922       4.01556259       0.00027588       10      -0.26356280       0.07007777       0.14521805       0.01174742       0.00474340      -0.01214314
Li      -0.00489014       4.00274616       6.51543652       11      -0.04210151      -0.15297093      -0.02716998       0.01235697       0.00829473       0.02893458
P        0.94159237       2.00295720       1.16803891       12       0.03288826      -0.11481126       0.24389916      -0.06952618       0.01209543       0.04673962
P        5.22666292       6.01761081      11.86868696       13      -0.38819996       0.27330098       0.02065813       0.06891937      -0.10326116      -0.09312098
P        4.03159020       6.01047171       5.34839857       14       0.15557122      -0.20073826      -0.07815854      -0.20873879       0.13963258       0.04788462
P        2.14990692       1.99912613       7.67465958       15       0.04634071      -0.05491282      -0.44962711      -0.02955824       0.10222068       0.21276656
S        5.08540970       2.00314389       1.31009592       16       0.01949344      -0.08728636       0.15010882      -0.16137785       0.00645948       0.00602568
S        1.08073993       6.01925886      11.72390345       17      -0.10310237       0.38533314       0.00607320       0.21290198       0.00934057      -0.00245816
S        1.99790168       6.01295705       5.21352108       18      -0.50237106      -0.27196958       0.12924533      -0.09101214       0.03592974      -0.02728473
S        4.16847150       2.00987698       7.82093103       19       0.04880315       0.42969280      -0.09753145       0.29495040      -0.04216088       0.01042184
S        1.68436080       2.00651075      12.26034783       20       0.14243517       0.10110287      -0.31565055       0.08160356      -0.00033705      -0.13317150
S        4.49511175       6.01601649       0.77795087       21       0.22611532       0.14862202       0.25127431      -0.14863171      -0.00306324       0.12176979
S        4.77014375       6.01284199       7.28934998       22       0.34881585      -0.14370385       0.13336045       0.10612772       0.02872669       0.14443795
S        1.40407800       2.00426845       5.74725113       23       0.29678322       0.09015772       0.37490281      -0.13108626      -0.00078360      -0.29322714
S        1.67356220       0.29039296       2.01029817       24       0.11312389      -0.39182220       0.35805645       0.11619280      -0.18319033       0.03804284
S        4.49390717       7.72395459      11.02415261       25      -0.42191014      -0.13131657      -0.32897710      -0.13317406       0.22572440      -0.07800537
S        4.76703009       7.72114541       4.50413516       26       0.70906895      -0.41264664      -0.13512600       0.08337805       0.18560398      -0.07491802
S        1.40953419       0.29282190       8.52272881       27      -0.37997106       0.09004399       0.06201875      -0.12299298      -0.20725028       0.03187327
S        4.50148127       4.29746474      11.02329838       28       0.03921348      -0.22778717      -0.36583086      -0.12845124      -0.11455975       0.00059107
S        1.67216873       3.71652579       2.01272409       29       0.01367007       0.23585757       0.37500940       0.10442954       0.17826894       0.05720928
S        1.41766951       3.71370504       8.52057145       30       0.22543379      -0.11842692      -0.06333014      -0.13792320       0.16633572       0.06025133
S        4.75368873       4.30239465       4.51752086       31      -0.40515895      -0.19345278       0.31655745       0.20504139      -0.32503486      -0.17759363
32
Lattice="6.17176593 0.0 0.0 0.0 8.01859859 0.0 0.0 0.0 13.03281824" Properties=species:S:1:pos:R:3:spacegroup_kinds:I:1:momenta:R:3:forces:R:3 spacegroup="P 1" unit_cell=conventional occupancy="_JSON {\"0\": {\"Li\": 1}, \"1\": {\"Li\": 1}, \"2\": {\"Li\": 1}, \"3\": {\"Li\": 1}, \"4\": {\"Li\": 1}, \"5\": {\"Li\": 1}, \"6\": {\"Li\": 1}, \"7\": {\"Li\": 1}, \"8\": {\"Li\": 1}, \"9\": {\"Li\": 1}, \"10\": {\"Li\": 1}, \"11\": {\"Li\": 1}, \"12\": {\"P\": 1}, \"13\": {\"P\": 1}, \"14\": {\"P\": 1}, \"15\": {\"P\": 1}, \"16\": {\"S\": 1}, \"17\": {\"S\": 1}, \"18\": {\"S\": 1}, \"19\": {\"S\": 1}, \"20\": {\"S\": 1}, \"21\": {\"S\": 1}, \"22\": {\"S\": 1}, \"23\": {\"S\": 1}, \"24\": {\"S\": 1}, \"25\": {\"S\": 1}, \"26\": {\"S\": 1}, \"27\": {\"S\": 1}, \"28\": {\"S\": 1}, \"29\": {\"S\": 1}, \"30\": {\"S\": 1}, \"31\": {\"S\": 1}}" energy=-140.31134033203125 free_energy=-140.31134033203125 stress="-0.00574943283572793 0.00047867276589386165 -0.0002428912848699838 0.00047867276589386165 -0.0074446676298975945 -0.0001312241656705737 -0.0002428912848699838 -0.0001312241656705737 -0.005210737697780132" pbc="T T T"
Li       2.39896802       0.29718266       4.31918964        0       0.05119244       0.33102244      -0.17696992       0.02150377      -0.07033549       0.02862768
Li       3.74684377       7.74401284       8.69731848        1      -0.17946113      -0.12193291      -0.03128252       0.06373658       0.00167133      -0.02003124
Li       5.47804857       7.73712503       2.16990139        2      -0.14603837      -0.17667387      -0.09249566       0.01471809       0.04299987       0.02694066
Li       0.68716520       0.27645100      10.82677892        3       0.06013293       0.11788224      -0.23152572       0.00348321      -0.00108044       0.04588701
Li       3.77027093       4.29950199       8.70380373        4       0.00548471       0.19954305       0.02713253      -0.00189847      -0.03493137      -0.00743039
Li       2.40833794       3.75348940       4.33775814        5      -0.00646405       0.12794377       0.04758052      -0.06086586      -0.02255148      -0.00022414
Li       0.68105001       3.75941555      10.85377815        6      -0.06841132       0.19433714       0.04948930       0.04576626      -0.03721726      -0.02749232
Li       5.47639950       4.28947054       2.17284957        7      -0.03942850      -0.01598881      -0.16415882       0.00659737      -0.04332126       0.03168958
Li       3.09309822       0.00533464       0.00191296        8       0.07383866      -0.08456470       0.10153643      -0.01631716       0.01422508       0.00320228
Li       0.01770114      -0.00416722       6.48986001        9       0.29364351      -0.10478005      -0.24008464       0.00066613      -0.02973505       0.04458784
Li       3.06265950       4.02061863       0.00277089       10      -0.37149818       0.18460956      -0.01846369       0.02400377       0.00863707      -0.03365882
Li      -0.00821826       3.99739912       6.51396841       11      -0.11022040      -0.17802259      -0.05140498       0.01521507       0.01355094       0.04558022
P        0.94255485       2.00220584       1.16994361       12       0.24958708      -0.10427019       0.21268022      -0.05786967       0.01649957       0.01008648
P        5.22392141       6.01992912      11.86928024       13      -0.33039908       0.35430584       0.10382046       0.09605049      -0.17048961      -0.14590569
P        4.03320203       6.00889222       5.34807727       14       0.34972645      -0.14626556      -0.07876097      -0.27444914       0.16558471       0.10190624
P        2.15051538       1.99738633       7.67087201       15       0.15687293      -0.27134114      -0.51622449      -0.01729074       0.15502544       0.33010411
S        5.08533160       2.00325206       1.31153161       16      -0.13005724       0.23323759       0.24014484      -0.13458985       0.00065852       0.00798409
S        1.08069852       6.02175280      11.72410700       17      -0.00657090       0.29632791      -0.09427064       0.17592734       0.01809276       0.00212678
S        1.99416974       6.01111842       5.21444745       18      -0.42539468      -0.14674486       0.13394626      -0.00946651       0.06980094      -0.02984858