32
Lattice="6.17176593 0.0 0.0 0.0 8.01859859 0.0 0.0 0.0 13.03281824" Properties=species:S:1:pos:R:3:spacegroup_kinds:I:1:forces:R:3 spacegroup="P 1" unit_cell=conventional occupancy="_JSON {\"0\": {\"Li\": 1}, \"1\": {\"Li\": 1}, \"2\": {\"Li\": 1}, \"3\": {\"Li\": 1}, \"4\": {\"Li\": 1}, \"5\": {\"Li\": 1}, \"6\": {\"Li\": 1}, \"7\": {\"Li\": 1}, \"8\": {\"Li\": 1}, \"9\": {\"Li\": 1}, \"10\": {\"Li\": 1}, \"11\": {\"Li\": 1}, \"12\": {\"P\": 1}, \"13\": {\"P\": 1}, \"14\": {\"P\": 1}, \"15\": {\"P\": 1}, \"16\": {\"S\": 1}, \"17\": {\"S\": 1}, \"18\": {\"S\": 1}, \"19\": {\"S\": 1}, \"20\": {\"S\": 1}, \"21\": {\"S\": 1}, \"22\": {\"S\": 1}, \"23\": {\"S\": 1}, \"24\": {\"S\": 1}, \"25\": {\"S\": 1}, \"26\": {\"S\": 1}, \"27\": {\"S\": 1}, \"28\": {\"S\": 1}, \"29\": {\"S\": 1}, \"30\": {\"S\": 1}, \"31\": {\"S\": 1}}" energy=-140.31869506835938 free_energy=-140.31869506835938 stress="-0.007170635275542736 -1.4624548239083879e-09 1.7471865065843417e-09 -1.4624548239083879e-09 -0.008259419351816177 -9.540877421443383e-09 1.7471865065843417e-09 -9.540877421443383e-09 -0.00526629202067852" pbc="T T T"
Li       2.40329652       0.26860172       4.33400832        0      -0.02603537       0.00549162      -0.00432139
Li       3.76846941       7.74999687       8.69880992        1       0.02603672      -0.00549209       0.00432333
Li       5.48917948       7.74999687       2.18240080        2      -0.02603646      -0.00549034       0.00432323
Li       0.68258645       0.26860172      10.85041744        3       0.02603569       0.00549223      -0.00431983
Li       3.76846941       4.27790102       8.69880992        4       0.02603596       0.00549155       0.00432277
Li       2.40329652       3.74069757       4.33400832        5      -0.02603541      -0.00549179      -0.00432191
Li       0.68258645       3.74069757      10.85041744        6       0.02603570      -0.00549147      -0.00431957
Li       5.48917948       4.27790102       2.18240080        7      -0.02603593       0.00549094       0.00432257
Li       3.08588297       0.00000000       0.00000000        8      -0.00000004      -0.00000159       0.00000009
Li       0.00000000       0.00000000       6.51640912        9      -0.00000018      -0.00000003       0.00000040
Li       3.08588297       4.00929929       0.00000000       10      -0.00000099       0.00000255      -0.00000036
Li       0.00000000       4.00929929       6.51640912       11       0.00000089       0.00000199      -0.00000027
P        0.94051010       2.00464965       1.16601784       12      -0.02067244      -0.00000042       0.02376068
P        5.23125583       6.01394894      11.86680040       13       0.02066597      -0.00000059      -0.02375935
P        4.02639307       6.01394894       5.35039128       14      -0.02066715       0.00000144      -0.02375694
P        2.14537286       2.00464965       7.68242696       15       0.02066800       0.00000047       0.02375724
S        5.08970823       2.00464965       1.30575389       16      -0.25450596       0.00000059       0.01679019
S        1.08205770       6.01394894      11.72706435       17       0.25450724      -0.00000026      -0.01679217
S        2.00382526       6.01394894       5.21065523       18      -0.25450566      -0.00000093      -0.01679148
S        4.16794067       2.00464965       7.82216301       19       0.25450161      -0.00000069       0.01679032
S        1.68132889       2.00464965      12.25955363       20       0.10912284       0.00000048      -0.16719615
S        4.49043704       6.01394894       0.77326461       21      -0.10912079      -0.00000017       0.16718131
S        4.76721186       6.01394894       7.28967373       22       0.10912076      -0.00000016       0.16717935
S        1.40455407       2.00464965       5.74314451       23      -0.10911971       0.00000013      -0.16718090
S        1.67233151       0.29287049       2.00524453       24       0.13957870      -0.21272677       0.08709878
S        4.49943442       7.72572810      11.02757371       25      -0.13957521       0.21272425      -0.08709393
S        4.75821447       7.72572810       4.51116459       26       0.13957475       0.21272413      -0.08709239
S        1.41355146       0.29287049       8.52165365       27      -0.13957594      -0.21272144       0.08709056
S        4.49943442       4.30216979      11.02757371       28      -0.13957779      -0.21272552      -0.08709314
S        1.67233151       3.71642880       2.00524453       29       0.13957913       0.21272632       0.08709936
S        1.41355146       3.71642880       8.52165365       30      -0.13957506       0.21272087       0.08709253
S        4.75821447       4.30216979       4.51116459       31       0.13957611      -0.21272530      -0.08709312
