4
Lattice="3.128588 0.0 0.0 -1.5642939988088433 2.709436998432005 0.0 0.0 0.0 5.016955" Properties=species:S:1:pos:R:3:spacegroup_kinds:I:1:forces:R:3 spacegroup="P 1" unit_cell=conventional occupancy="_JSON {\"0\": {\"Al\": 1}, \"1\": {\"Al\": 1}, \"2\": {\"N\": 1}, \"3\": {\"N\": 1}}" energy=-29.673715591430664 free_energy=-29.673715591430664 stress="-0.0022254912182688713 -1.4045053831068799e-06 -1.5438326173011774e-08 -1.4045053831068799e-06 -0.002227608347311616 -1.1243609598921012e-08 -1.5438326173011774e-08 -1.1243609598921012e-08 -0.005453695543110371" pbc="T T T"
Al       1.56429556       0.90314476       2.50490041        0      -0.00003447       0.00001906       0.00553163
Al      -0.00000156       1.80629224       5.01337791        1       0.00003440      -0.00002031       0.00552398
N        1.56429556       0.90314476       4.41849749        2      -0.00003636       0.00002128      -0.00553036
N       -0.00000156       1.80629224       1.91001999        3       0.00003639      -0.00001999      -0.00552525
