32
Lattice="6.17176593 0.0 0.0 0.0 8.01859859 0.0 0.0 0.0 13.03281824" Properties=species:S:1:pos:R:3:spacegroup_kinds:I:1:forces:R:3 spacegroup="P 1" unit_cell=conventional occupancy="_JSON {\"0\": {\"Li\": 1}, \"1\": {\"Li\": 1}, \"2\": {\"Li\": 1}, \"3\": {\"Li\": 1}, \"4\": {\"Li\": 1}, \"5\": {\"Li\": 1}, \"6\": {\"Li\": 1}, \"7\": {\"Li\": 1}, \"8\": {\"Li\": 1}, \"9\": {\"Li\": 1}, \"10\": {\"Li\": 1}, \"11\": {\"Li\": 1}, \"12\": {\"P\": 1}, \"13\": {\"P\": 1}, \"14\": {\"P\": 1}, \"15\": {\"P\": 1}, \"16\": {\"S\": 1}, \"17\": {\"S\": 1}, \"18\": {\"S\": 1}, \"19\": {\"S\": 1}, \"20\": {\"S\": 1}, \"21\": {\"S\": 1}, \"22\": {\"S\": 1}, \"23\": {\"S\": 1}, \"24\": {\"S\": 1}, \"25\": {\"S\": 1}, \"26\": {\"S\": 1}, \"27\": {\"S\": 1}, \"28\": {\"S\": 1}, \"29\": {\"S\": 1}, \"30\": {\"S\": 1}, \"31\": {\"S\": 1}}" energy=-140.3463134765625 free_energy=-140.3463134765625 stress="-0.0028886494692415 -1.4192807817892117e-08 -2.58179291279248e-08 -1.4192807817892117e-08 -0.004072277806699276 6.100670191244717e-09 -2.58179291279248e-08 6.100670191244717e-09 -0.002593595301732421" pbc="T T T"
Li       2.40166818       0.26892252       4.33377964        0      -0.01549025       0.00236168       0.00063401
Li       3.77009787       7.74967603       8.69903842        1       0.01548907      -0.00236104      -0.00063194
Li       5.48755102       7.74967600       2.18262941        2      -0.01549312      -0.00236050      -0.00063301
Li       0.68421478       0.26892246      10.85018872        3       0.01549061       0.00236177       0.00063228
Li       3.77009791       4.27822190       8.69903838        4       0.01548756       0.00235924      -0.00063372
Li       2.40166819       3.74037676       4.33377963        5      -0.01548994      -0.00236046       0.00063468
Li       0.68421482       3.74037678      10.85018868        6       0.01549092      -0.00236083       0.00063094
Li       5.48755101       4.27822182       2.18262941        7      -0.01549324       0.00236117      -0.00063178
Li       3.08588298      -0.00000006       0.00000005        8       0.00000034       0.00000202      -0.00000010
Li      -0.00000002       0.00000003       6.51640921        9       0.00000070       0.00000105      -0.00000046
Li       3.08588302       4.00929935       0.00000009       10      -0.00000147      -0.00000060      -0.00000085
Li      -0.00000001       4.00929920       6.51640913       11       0.00000161       0.00000057      -0.00000092
P        0.93932951       2.00464966       1.16793462       12      -0.00066608      -0.00000061       0.03303192
P        5.23243612       6.01394900      11.86488411       13       0.00066700       0.00000008      -0.03305746
P        4.02521222       6.01394893       5.34847524       14      -0.00064997       0.00000357      -0.03305963
P        2.14655383       2.00464969       7.68434316       15       0.00065470      -0.00000115       0.03305286
S        5.07612373       2.00464956       1.30682517       16       0.00279979       0.00000034       0.01274958
S        1.09564220       6.01394895      11.72599296       17      -0.00280049       0.00000033      -0.01274630
S        1.99024104       6.01394887       5.20958389       18       0.00279352       0.00000073      -0.01274383
S        4.18152504       2.00464969       7.82323414       19      -0.00279225      -0.00000040       0.01274692
S        1.68772168       2.00464963      12.25093573       20       0.03397109      -0.00000024       0.02524898
S        4.48404419       6.01394894       0.78188245       21      -0.03397246       0.00000037      -0.02523704
S        4.77360467       6.01394894       7.29829159       22       0.03397238       0.00000069      -0.02523761
S        1.39816137       2.00464965       5.73452698       23      -0.03397284      -0.00000024       0.02524166
S        1.68016699       0.28147988       2.00960388       24       0.02273499      -0.00259244      -0.01692000
S        4.49159909       7.73711891      11.02321434       25      -0.02273204       0.00259128       0.01692456
S        4.76604988       7.73711927       4.50680508       26       0.02272732       0.00258023       0.01692817
S        1.40571582       0.28147966       8.52601308       27      -0.02272699      -0.00258656      -0.01692805
S        4.49159902       4.29077892      11.02321434       28      -0.02273380      -0.00259285       0.01692507
S        1.68016705       3.72781958       2.00960394       29       0.02273179       0.00258989      -0.01692028
S        1.40571582       3.72781968       8.52601310       30      -0.02272784       0.00258646      -0.01692827
S        4.76604989       4.29077868       4.50680504       31       0.02272956      -0.00258340       0.01692975
