4
Lattice="3.128588 0.0 0.0 -1.5642939988088433 2.709436998432005 0.0 0.0 0.0 5.016955" Properties=species:S:1:pos:R:3:spacegroup_kinds:I:1:forces:R:3 spacegroup="P 1" unit_cell=conventional occupancy="_JSON {\"0\": {\"Al\": 1}, \"1\": {\"Al\": 1}, \"2\": {\"N\": 1}, \"3\": {\"N\": 1}}" energy=-29.673717498779297 free_energy=-29.673717498779297 stress="-0.002225287025794387 -1.4548880926668062e-06 -2.666184073518707e-08 -1.4548880926668062e-06 -0.002227503340691328 -6.592683376993591e-08 -2.666184073518707e-08 -6.592683376993591e-08 -0.005453644786030054" pbc="T T T"
Al       1.56429556       0.90314476       2.50490041        0      -0.00003434       0.00002062       0.00553173
Al      -0.00000156       1.80629224       5.01337791        1       0.00003438      -0.00001928       0.00552438
N        1.56429556       0.90314476       4.41849749        2      -0.00003634       0.00001992      -0.00553115
N       -0.00000156       1.80629224       1.91001999        3       0.00003618      -0.00002111      -0.00552481
