32
Lattice="6.17176593 0.0 0.0 0.0 8.01859859 0.0 0.0 0.0 13.03281824" Properties=species:S:1:pos:R:3:spacegroup_kinds:I:1:forces:R:3 spacegroup="P 1" unit_cell=conventional occupancy="_JSON {\"0\": {\"Li\": 1}, \"1\": {\"Li\": 1}, \"2\": {\"Li\": 1}, \"3\": {\"Li\": 1}, \"4\": {\"Li\": 1}, \"5\": {\"Li\": 1}, \"6\": {\"Li\": 1}, \"7\": {\"Li\": 1}, \"8\": {\"Li\": 1}, \"9\": {\"Li\": 1}, \"10\": {\"Li\": 1}, \"11\": {\"Li\": 1}, \"12\": {\"P\": 1}, \"13\": {\"P\": 1}, \"14\": {\"P\": 1}, \"15\": {\"P\": 1}, \"16\": {\"S\": 1}, \"17\": {\"S\": 1}, \"18\": {\"S\": 1}, \"19\": {\"S\": 1}, \"20\": {\"S\": 1}, \"21\": {\"S\": 1}, \"22\": {\"S\": 1}, \"23\": {\"S\": 1}, \"24\": {\"S\": 1}, \"25\": {\"S\": 1}, \"26\": {\"S\": 1}, \"27\": {\"S\": 1}, \"28\": {\"S\": 1}, \"29\": {\"S\": 1}, \"30\": {\"S\": 1}, \"31\": {\"S\": 1}}" energy=-140.34632873535156 free_energy=-140.34632873535156 stress="-0.002888641320168972 5.182470008691098e-09 1.2111900815625631e-08 5.182470008691098e-09 -0.004072246141731739 1.7514922845407455e-08 1.2111900815625631e-08 1.7514922845407455e-08 -0.002593587851151824" pbc="T T T"
Li       2.40166815       0.26892248       4.33377962        0      -0.01549065       0.00236091       0.00063427
Li       3.77009792       7.74967598       8.69903847        1       0.01548888      -0.00236037      -0.00063492
Li       5.48755100       7.74967601       2.18262942        2      -0.01549326      -0.00236008      -0.00063209
Li       0.68421476       0.26892248      10.85018872        3       0.01549120       0.00236018       0.00063121
Li       3.77009788       4.27822190       8.69903840        4       0.01548849       0.00235906      -0.00063412
Li       2.40166819       3.74037678       4.33377962        5      -0.01548976      -0.00235955       0.00063371
Li       0.68421479       3.74037683      10.85018871        6       0.01548976      -0.00236041       0.00063121
Li       5.48755104       4.27822185       2.18262941        7      -0.01549181       0.00235987      -0.00063071
Li       3.08588296      -0.00000009       0.00000014        8      -0.00000155       0.00000020      -0.00000011
Li      -0.00000000       0.00000002       6.51640916        9       0.00000135       0.00000111      -0.00000202
Li       3.08588296       4.00929942       0.00000011       10      -0.00000127      -0.00000119       0.00000144
Li      -0.00000003       4.00929918       6.51640914       11       0.00000102      -0.00000147      -0.00000117
P        0.93932954       2.00464936       1.16793471       12      -0.00066870       0.00000800       0.03303664
P        5.23243624       6.01394884      11.86488423       13       0.00066358      -0.00000096      -0.03306123
P        4.02521221       6.01394893       5.34847528       14      -0.00064982       0.00000227      -0.03306536
P        2.14655384       2.00464964       7.68434323       15       0.00065403      -0.00000072       0.03305298
S        5.07612360       2.00464964       1.30682507       16       0.00280269       0.00000026       0.01275012
S        1.09564238       6.01394885      11.72599298       17      -0.00280192       0.00000020      -0.01274623
S        1.99024106       6.01394895       5.20958386       18       0.00279212       0.00000141      -0.01274373
S        4.18152503       2.00464966       7.82323416       19      -0.00279385      -0.00000144       0.01274843
S        1.68772171       2.00464972      12.25093565       20       0.03396942      -0.00000003       0.02524970
S        4.48404417       6.01394888       0.78188256       21      -0.03397248       0.00000101      -0.02523630
S        4.77360471       6.01394891       7.29829154       22       0.03397308       0.00000102      -0.02523422
S        1.39816136       2.00464971       5.73452695       23      -0.03397305      -0.00000016       0.02524049
S        1.68016696       0.28147992       2.00960388       24       0.02273532      -0.00259376      -0.01691939
S        4.49159899       7.73711920      11.02321408       25      -0.02272841       0.00258489       0.01692445
S        4.76604992       7.73711932       4.50680506       26       0.02272825       0.00258064       0.01692873
S        1.40571578       0.28147966       8.52601304       27      -0.02272666      -0.00258571      -0.01692648
S        4.49159900       4.29077884      11.02321429       28      -0.02272921      -0.00258445       0.01692549
S        1.68016708       3.72781965       2.00960396       29       0.02273186       0.00258550      -0.01692326
S        1.40571581       3.72781971       8.52601308       30      -0.02272759       0.00258580      -0.01692699
S        4.76604994       4.29077861       4.50680508       31       0.02272867      -0.00258206       0.01692941
