4
Lattice="3.128588 0.0 0.0 -1.5642939988088433 2.709436998432005 0.0 0.0 0.0 5.016955" Properties=species:S:1:pos:R:3:spacegroup_kinds:I:1:forces:R:3 spacegroup="P 1" unit_cell=conventional occupancy="_JSON {\"0\": {\"Al\": 1}, \"1\": {\"Al\": 1}, \"2\": {\"N\": 1}, \"3\": {\"N\": 1}}" energy=-29.673717498779297 free_energy=-29.673717498779297 stress="-0.002225177828222513 -1.3514135162040475e-06 -1.9674686768667016e-08 -1.3514135162040475e-06 -0.002227270044386387 -2.2627165918720493e-08 -1.9674686768667016e-08 -2.2627165918720493e-08 -0.005453700199723244" pbc="T T T"
Al       1.56429556       0.90314476       2.50490041        0      -0.00003485       0.00001920       0.00553109
Al      -0.00000156       1.80629224       5.01337791        1       0.00003517      -0.00001901       0.00552459
N        1.56429556       0.90314476       4.41849749        2      -0.00003734       0.00001976      -0.00552975
N       -0.00000156       1.80629224       1.91001999        3       0.00003691      -0.00002005      -0.00552550
