32
Lattice="6.17176593 0.0 0.0 0.0 8.01859859 0.0 0.0 0.0 13.03281824" Properties=species:S:1:pos:R:3:spacegroup_kinds:I:1:forces:R:3 spacegroup="P 1" unit_cell=conventional occupancy="_JSON {\"0\": {\"Li\": 1}, \"1\": {\"Li\": 1}, \"2\": {\"Li\": 1}, \"3\": {\"Li\": 1}, \"4\": {\"Li\": 1}, \"5\": {\"Li\": 1}, \"6\": {\"Li\": 1}, \"7\": {\"Li\": 1}, \"8\": {\"Li\": 1}, \"9\": {\"Li\": 1}, \"10\": {\"Li\": 1}, \"11\": {\"Li\": 1}, \"12\": {\"P\": 1}, \"13\": {\"P\": 1}, \"14\": {\"P\": 1}, \"15\": {\"P\": 1}, \"16\": {\"S\": 1}, \"17\": {\"S\": 1}, \"18\": {\"S\": 1}, \"19\": {\"S\": 1}, \"20\": {\"S\": 1}, \"21\": {\"S\": 1}, \"22\": {\"S\": 1}, \"23\": {\"S\": 1}, \"24\": {\"S\": 1}, \"25\": {\"S\": 1}, \"26\": {\"S\": 1}, \"27\": {\"S\": 1}, \"28\": {\"S\": 1}, \"29\": {\"S\": 1}, \"30\": {\"S\": 1}, \"31\": {\"S\": 1}}" energy=-140.3463134765625 free_energy=-140.3463134765625 stress="-0.002888641320168972 3.2172586816869853e-09 3.742733234446405e-09 3.2172586816869853e-09 -0.004072264302521944 1.3515341734660069e-08 3.742733234446405e-09 1.3515341734660069e-08 -0.0025935987941920757" pbc="T T T"
Li       2.40166815       0.26892249       4.33377963        0      -0.01548978       0.00236011       0.00063499
Li       3.77009794       7.74967600       8.69903849        1       0.01548908      -0.00236027      -0.00063140
Li       5.48755108       7.74967606       2.18262940        2      -0.01549371      -0.00236019      -0.00063185
Li       0.68421477       0.26892245      10.85018872        3       0.01549079       0.00236022       0.00063226
Li       3.77009787       4.27822191       8.69903838        4       0.01548823       0.00235915      -0.00063383
Li       2.40166816       3.74037681       4.33377958        5      -0.01548902      -0.00235974       0.00063337
Li       0.68421481       3.74037677      10.85018871        6       0.01549106      -0.00236073       0.00063042
Li       5.48755107       4.27822187       2.18262937        7      -0.01549173       0.00236024      -0.00062980
Li       3.08588290      -0.00000005       0.00000004        8       0.00000012       0.00000214       0.00000051
Li       0.00000002      -0.00000006       6.51640916        9       0.00000091       0.00000177      -0.00000172
Li       3.08588297       4.00929936       0.00000007       10      -0.00000216      -0.00000170       0.00000058
Li      -0.00000000       4.00929925       6.51640909       11       0.00000055      -0.00000037       0.00000109
P        0.93932953       2.00464929       1.16793480       12      -0.00066891       0.00001508       0.03303219
P        5.23243625       6.01394889      11.86488425       13       0.00066403       0.00000202      -0.03306224
P        4.02521221       6.01394895       5.34847529       14      -0.00065052       0.00000168      -0.03306263
P        2.14655381       2.00464969       7.68434320       15       0.00065377      -0.00000005       0.03305490
S        5.07612364       2.00464959       1.30682510       16       0.00280169      -0.00000009       0.01274839
S        1.09564237       6.01394891      11.72599295       17      -0.00280154      -0.00000090      -0.01274580
S        1.99024098       6.01394897       5.20958395       18       0.00279254       0.00000045      -0.01274464
S        4.18152505       2.00464962       7.82323423       19      -0.00279313      -0.00000009       0.01274726
S        1.68772172       2.00464968      12.25093563       20       0.03397156      -0.00000093       0.02524794
S        4.48404417       6.01394888       0.78188250       21      -0.03397343       0.00000056      -0.02523554
S        4.77360470       6.01394892       7.29829157       22       0.03397202       0.00000064      -0.02523720
S        1.39816134       2.00464967       5.73452694       23      -0.03397357       0.00000004       0.02523933
S        1.68016694       0.28147993       2.00960382       24       0.02273676      -0.00260004      -0.01691570
S        4.49159897       7.73711929      11.02321412       25      -0.02272894       0.00258373       0.01692608
S        4.76604994       7.73711921       4.50680505       26       0.02272769       0.00258156       0.01692688
S        1.40571579       0.28147959       8.52601311       27      -0.02272744      -0.00258549      -0.01692745
S        4.49159897       4.29077886      11.02321430       28      -0.02273035      -0.00258588       0.01692647
S        1.68016707       3.72781967       2.00960396       29       0.02273139       0.00258432      -0.01692414
S        1.40571580       3.72781972       8.52601312       30      -0.02272743       0.00258536      -0.01692808
S        4.76604998       4.29077864       4.50680506       31       0.02272937      -0.00258246       0.01692945
