13
Lattice="7.26870274 0.0 0.0 3.634351370000001 6.294881225397555 0.0 3.634351370000001 2.0982937417991856 5.934870934989993" Properties=species:S:1:pos:R:3:spacegroup_kinds:I:1:forces:R:3 spacegroup="P 1" unit_cell=conventional occupancy="_JSON {\"0\": {\"Li\": 1}, \"1\": {\"Li\": 1}, \"2\": {\"Li\": 1}, \"3\": {\"Li\": 1}, \"4\": {\"Li\": 1}, \"5\": {\"Li\": 1}, \"6\": {\"P\": 1}, \"7\": {\"S\": 1}, \"8\": {\"S\": 1}, \"9\": {\"S\": 1}, \"10\": {\"S\": 1}, \"11\": {\"S\": 1}, \"12\": {\"Cl\": 1}}" energy=-53.3634147644043 free_energy=-53.3634147644043 stress="-0.0007941909716464579 -2.41667663658518e-07 -1.5369596439995803e-07 -2.41667663658518e-07 -0.0007939165225252509 -1.162913108032626e-07 -1.5369596439995803e-07 -1.162913108032626e-07 -0.0007939016213640571" pbc="T T T"
Li       9.25387995       7.24703237       3.10460814        0       0.00422597      -0.00243481       0.00344862
Li      12.55222827       5.34273008       5.79769826        1      -0.00421120       0.00243315      -0.00344147
Li       9.25387995       5.34273008       5.79769826        2       0.00422557       0.00243858      -0.00344722
Li      12.55222827       7.24703237       3.10460814        3      -0.00421217      -0.00243111       0.00344089
Li      10.90305411       4.39057894       3.10460814        4       0.00000251       0.00487597       0.00344807
Li      10.90305411       8.19918351       5.79769826        5       0.00000211      -0.00486375      -0.00344164
P        7.26870274       4.19658748       2.96743547        6       0.00008575       0.00004640       0.00003621
S        7.26870637       6.13578650       2.28182731        7      -0.00001815      -0.01090863       0.00384738
S        8.94810016       3.22699113       2.28182731        8      -0.00945823       0.00544038       0.00384742
S        5.58931258       3.22699113       2.28182731        9       0.00937721       0.00541275       0.00383008
S        7.26870637       4.19658958       5.02426588       10      -0.00001926      -0.00000936      -0.01156913
S       10.90305411       6.29488123       4.45115320       11      -0.00000119      -0.00000106      -0.00000081
Cl       0.00000000       0.00000000       0.00000000       12       0.00000103       0.00000148       0.00000165
