13
Lattice="7.26870274 0.0 0.0 3.634351370000001 6.294881225397555 0.0 3.634351370000001 2.0982937417991856 5.934870934989993" Properties=species:S:1:pos:R:3:spacegroup_kinds:I:1:momenta:R:3:forces:R:3 spacegroup="P 1" unit_cell=conventional occupancy="_JSON {\"0\": {\"Li\": 1}, \"1\": {\"Li\": 1}, \"2\": {\"Li\": 1}, \"3\": {\"Li\": 1}, \"4\": {\"Li\": 1}, \"5\": {\"Li\": 1}, \"6\": {\"P\": 1}, \"7\": {\"S\": 1}, \"8\": {\"S\": 1}, \"9\": {\"S\": 1}, \"10\": {\"S\": 1}, \"11\": {\"S\": 1}, \"12\": {\"Cl\": 1}}" energy=-53.33037567138672 free_energy=-53.33037567138672 stress="-0.0015131371328607202 -0.0024517271667718887 -0.0032414316665381193 -0.0024517271667718887 -0.003255346789956093 0.0008475788636133075 -0.0032414316665381193 0.0008475788636133075 0.0002903481654357165" pbc="T T T"
Li       9.23239033       7.28951487       3.09290274        0       0.20403388       0.25521139       0.15884367       0.12782091      -0.05983702       0.08450194
Li      12.45916182       5.26808031       5.71836031        1      -0.01518044      -0.30475382       0.02938831       0.10520812      -0.12119564       0.20953088
Li       9.15490404       5.51299855       5.83907917        2      -0.48043684       0.40497883      -0.11247295      -0.10030203       0.05629622      -0.10678791
Li      12.59208950       7.30924397       3.11679314        3      -0.00412813       0.22863441       0.20638422      -0.07761031      -0.31249452       0.20011012
Li      10.89328156       4.39776243       3.02229609        4      -0.17457930       0.43141676      -0.04963488      -0.11516068       0.24507463       0.09741346
Li      10.64864212       8.22160608       5.80315236        5      -0.80542263      -0.04515233      -0.03879073      -0.13641746      -0.06489998      -0.01646357
P        7.27437640       4.19988726       2.97177017        6       0.35331703       0.08196293      -0.74126741       0.57442355      -0.05481039       0.12891749
S        7.34505449       6.12394846       2.25376407        7       1.05953159      -0.59794843       0.30563786      -0.30426341      -0.00463364       0.12706152
S        8.93473048       3.18179997       2.26952168        8      -0.34182953      -0.83241833      -0.81285376      -0.04895535       0.30554178      -0.16647735
S        5.61126245       3.24671293       2.30262447        9       0.77975146       0.71300753       0.51111208      -0.38079491      -0.08250533      -0.16222721
S        7.28976412       4.16022932       5.03229388       10       0.01693348       0.31739980       0.57808355      -0.06907596       0.28446823      -0.09648506
S       10.84274859       6.33521211       4.46767098       11      -1.11441350       0.04439370      -0.05507237       0.12782221      -0.10335882      -0.29366004
Cl       0.03915407      -0.01814074       0.01399153       12       0.52242297      -0.69673242       0.02064242       0.29730529      -0.08764556      -0.00543417
