13
Lattice="7.26870274 0.0 0.0 3.634351370000001 6.294881225397555 0.0 3.634351370000001 2.0982937417991856 5.934870934989993" Properties=species:S:1:pos:R:3:spacegroup_kinds:I:1:momenta:R:3:forces:R:3 spacegroup="P 1" unit_cell=conventional occupancy="_JSON {\"0\": {\"Li\": 1}, \"1\": {\"Li\": 1}, \"2\": {\"Li\": 1}, \"3\": {\"Li\": 1}, \"4\": {\"Li\": 1}, \"5\": {\"Li\": 1}, \"6\": {\"P\": 1}, \"7\": {\"S\": 1}, \"8\": {\"S\": 1}, \"9\": {\"S\": 1}, \"10\": {\"S\": 1}, \"11\": {\"S\": 1}, \"12\": {\"Cl\": 1}}" energy=-53.3634147644043 free_energy=-53.3634147644043 stress="-0.0007941978983581066 -2.40125814343628e-07 -1.6471430797082576e-07 -2.40125814343628e-07 -0.0007939285133033991 -1.0221801716170376e-07 -1.6471430797082576e-07 -1.0221801716170376e-07 -0.0007939145434647799" pbc="T T T"
Li       9.25387995       7.24703237       3.10460814        0       0.00000000       0.00000000       0.00000000       0.00422515      -0.00243408       0.00344763
Li      12.55222827       5.34273008       5.79769826        1       0.00000000       0.00000000       0.00000000      -0.00421098       0.00243285      -0.00344134
Li       9.25387995       5.34273008       5.79769826        2       0.00000000       0.00000000       0.00000000       0.00422496       0.00243967      -0.00344734
Li      12.55222827       7.24703237       3.10460814        3       0.00000000       0.00000000       0.00000000      -0.00421273      -0.00243134       0.00344197
Li      10.90305411       4.39057894       3.10460814        4       0.00000000       0.00000000       0.00000000       0.00000250       0.00487688       0.00344901
Li      10.90305411       8.19918351       5.79769826        5       0.00000000       0.00000000       0.00000000       0.00000185      -0.00486463      -0.00344211
P        7.26870274       4.19658748       2.96743547        6       0.00000000       0.00000000       0.00000000       0.00008501       0.00004659       0.00003623
S        7.26870637       6.13578650       2.28182731        7       0.00000000       0.00000000       0.00000000      -0.00001816      -0.01090947       0.00384751
S        8.94810016       3.22699113       2.28182731        8       0.00000000       0.00000000       0.00000000      -0.00945702       0.00544041       0.00384676
S        5.58931258       3.22699113       2.28182731        9       0.00000000       0.00000000       0.00000000       0.00937826       0.00541312       0.00383036
S        7.26870637       4.19658958       5.02426588       10       0.00000000       0.00000000       0.00000000      -0.00001870      -0.00000953      -0.01157008
S       10.90305411       6.29488123       4.45115320       11       0.00000000       0.00000000       0.00000000      -0.00000210      -0.00000133      -0.00000006
Cl       0.00000000       0.00000000       0.00000000       12       0.00000000       0.00000000       0.00000000       0.00000195       0.00000092       0.00000151
13
Lattice="7.26870274 0.0 0.0 3.634351370000001 6.294881225397555 0.0 3.634351370000001 2.0982937417991856 5.934870934989993" Properties=species:S:1:pos:R:3:spacegroup_kinds:I:1:momenta:R:3:forces:R:3 spacegroup="P 1" unit_cell=conventional occupancy="_JSON {\"0\": {\"Li\": 1}, \"1\": {\"Li\": 1}, \"2\": {\"Li\": 1}, \"3\": {\"Li\": 1}, \"4\": {\"Li\": 1}, \"5\": {\"Li\": 1}, \"6\": {\"P\": 1}, \"7\": {\"S\": 1}, \"8\": {\"S\": 1}, \"9\": {\"S\": 1}, \"10\": {\"S\": 1}, \"11\": {\"S\": 1}, \"12\": {\"Cl\": 1}}" energy=-53.363380432128906 free_energy=-53.363380432128906 stress="-0.0006240507354959846 -4.021793938591145e-05 -4.639927647076547e-05 -4.021793938591145e-05 -0.0007559226942248642 3.2633593946229666e-05 -4.639927647076547e-05 3.2633593946229666e-05 -0.0008556472603231668" pbc="T T T"
Li       9.25371858       7.24653526       3.10550141        0      -0.04410084       0.03010164       0.02148976       0.00279287      -0.00028957       0.00214845
Li      12.54973417       5.34309806       5.79767839        1      -0.07011379       0.06031370      -0.05843765       0.00500210      -0.00320837       0.00401185
Li       9.25373268       5.34460432       5.79746358        2       0.01083967       0.11500727      -0.01736566      -0.00082751      -0.00023418      -0.00128908
Li      12.55258138       7.24700998       3.10764367        3      -0.03209699      -0.00349157       0.10384366       0.00534173       0.00322672      -0.00094993
Li      10.90385357       4.39238974       3.10486711        4      -0.04702706       0.04897724       0.01581036      -0.00143479      -0.00129233      -0.00065427
Li      10.89913279       8.19922281       5.79789463        5      -0.18325100       0.03966922      -0.03847372      -0.00144327      -0.00313056      -0.00511986
P        7.26845477       4.19669113       2.96783722        6      -0.14999190       0.02297080       0.20575456       0.01188621      -0.01450050      -0.01602258
S        7.26957215       6.13545090       2.28084167        7       0.21938312      -0.19223445      -0.24127022      -0.00684001      -0.01118754       0.00957733
S        8.94959737       3.22691869       2.28267608        8       0.35588497      -0.02945375       0.07630295      -0.02787984       0.01184916       0.00692699
S        5.58880546       3.22625912       2.28197528        9      -0.12888861      -0.12635669       0.05872620       0.01910001       0.01222573       0.00518824
S        7.26818693       4.19656636       5.02405233       10      -0.11804067      -0.09245728      -0.09465501      -0.00175142       0.00496833      -0.00381269
S       10.90348924       6.29517196       4.45134139       11       0.20933824       0.17032843       0.14124705      -0.00752780       0.00306939       0.00125141
Cl      -0.00039909       0.00007445      -0.00114292       12      -0.02193512      -0.04337456      -0.17297227       0.00358172      -0.00149632      -0.00125588
13
Lattice="7.26870274 0.0 0.0 3.634351370000001 6.294881225397555 0.0 3.634351370000001 2.0982937417991856 5.934870934989993" Properties=species:S:1:pos:R:3:spacegroup_kinds:I:1:momenta:R:3:forces:R:3 spacegroup="P 1" unit_cell=conventional occupancy="_JSON {\"0\": {\"Li\": 1}, \"1\": {\"Li\": 1}, \"2\": {\"Li\": 1}, \"3\": {\"Li\": 1}, \"4\": {\"Li\": 1}, \"5\": {\"Li\": 1}, \"6\": {\"P\": 1}, \"7\": {\"S\": 1}, \"8\": {\"S\": 1}, \"9\": {\"S\": 1}, \"10\": {\"S\": 1}, \"11\": {\"S\": 1}, \"12\": {\"Cl\": 1}}" energy=-53.36285400390625 free_energy=-53.36285400390625 stress="-0.0003188895352650434 -0.00016965788381639868 -0.00012827948376070708 -0.00016965788381639868 -0.0007810628740116954 0.00011917194933630526 -0.00012827948376070708 0.00011917194933630526 -0.0011793429730460048" pbc="T T T"
Li       9.25011225       7.24666154       3.10554964        0      -0.15841931       0.01870156      -0.05273117       0.01539177      -0.00141980       0.01140245
Li      12.54760900       5.34369993       5.79542571        1      -0.13113255      -0.03330633      -0.09345879       0.01586286      -0.00936580       0.02225155
Li       9.25283454       5.35105391       5.79915193        2      -0.05074711       0.17464006       0.06416690      -0.00946769      -0.00171787      -0.00569704
Li      12.55215164       7.24659638       3.11221554        3       0.05305760      -0.03397784       0.12217763       0.02352969       0.01632973      -0.01331964
Li      10.90314765       4.39373080       3.10396260        4       0.00488873       0.03732170      -0.05337562      -0.00122686       0.00120308       0.00055328
Li      10.89139658       8.20152214       5.79849565        5      -0.20644158       0.06940901       0.03878806      -0.00530499      -0.01482196      -0.01022634
P        7.26722526       4.19702482       2.96974388        6      -0.15165831       0.11839970       0.37522250       0.04870047      -0.05120658      -0.08402492
S        7.27147330       6.13397470       2.27917899        7       0.26653642      -0.25575786      -0.25105633      -0.02882098       0.00021100       0.02018031
S        8.95187181       3.22780769       2.28356222        8       0.32558266       0.18500739       0.06459790      -0.06809741       0.01496749       0.01049973
S        5.58744237       3.22577076       2.28243349        9      -0.25656188       0.00060944       0.09579773       0.03079326       0.02116241       0.00900550
S        7.26777958       4.19461663       5.02240736       10       0.04400704      -0.29643291      -0.30076667      -0.00164729       0.02587741       0.04506852
S       10.90471099       6.29647976       4.45182053       11       0.07818688       0.11077267       0.06662144      -0.03161684       0.00551477      -0.00195531
Cl       0.00051681      -0.00076902      -0.00214581       12       0.18270141      -0.09538658      -0.07598358       0.01190409      -0.00673382      -0.00373806
13
Lattice="7.26870274 0.0 0.0 3.634351370000001 6.294881225397555 0.0 3.634351370000001 2.0982937417991856 5.934870934989993" Properties=species:S:1:pos:R:3:spacegroup_kinds:I:1:momenta:R:3:forces:R:3 spacegroup="P 1" unit_cell=conventional occupancy="_JSON {\"0\": {\"Li\": 1}, \"1\": {\"Li\": 1}, \"2\": {\"Li\": 1}, \"3\": {\"Li\": 1}, \"4\": {\"Li\": 1}, \"5\": {\"Li\": 1}, \"6\": {\"P\": 1}, \"7\": {\"S\": 1}, \"8\": {\"S\": 1}, \"9\": {\"S\": 1}, \"10\": {\"S\": 1}, \"11\": {\"S\": 1}, \"12\": {\"Cl\": 1}}" energy=-53.36080551147461 free_energy=-53.36080551147461 stress="3.6237508993508527e-06 -0.00035229953937232494 -0.0002278051688335836 -0.00035229953937232494 -0.000707040773704648 0.00018303297110833228 -0.0002278051688335836 0.00018303297110833228 -0.0016092578880488873" pbc="T T T"
Li       9.24307928       7.24777216       3.10171281        0      -0.16515768       0.04868004      -0.09721077       0.04702597      -0.00931742       0.03371251
Li      12.54224370       5.34279218       5.79049502        1      -0.17073665      -0.00737966      -0.16902919       0.03332577      -0.02167985       0.05385731
Li       9.25000601       5.35814505       5.80282058        2      -0.03763071       0.20379124       0.11209208      -0.01011267       0.00340186      -0.02048052
Li      12.55411881       7.24479014       3.11669517        3       0.01546316      -0.02976856       0.09446746       0.02897920       0.03258427      -0.01966453
Li      10.90374153       4.39258953       3.10195035        4       0.04433257      -0.16092207      -0.11643531      -0.00710301       0.01597876       0.00969563
Li      10.88469811       8.20484489       5.80181218        5      -0.23936958       0.11530945       0.11667121      -0.00937041      -0.03826777      -0.03256974
P        7.26615731       4.19782686       2.97306119        6      -0.13770546       0.04700247       0.57639443       0.10303399      -0.09693849      -0.18532041
S        7.27274956       6.13255874       2.27590360        7       0.09029303      -0.14552406      -0.47530354      -0.05059325       0.00377764       0.04403193
S        8.95471986       3.22841245       2.28525843        8       0.32731595       0.09524502       0.26100409      -0.12068248       0.02340976       0.00845909
S        5.58654426       3.22644174       2.28230645        9      -0.13705934       0.17534856      -0.05459385       0.04325100       0.02840672       0.01889628
S        7.26824229       4.19239059       5.02060809       10       0.15233563      -0.37051835      -0.22879428      -0.01210711       0.05390859       0.11291696
S       10.90481468       6.29750706       4.45230089       11      -0.00469245       0.18719155      -0.00826251      -0.06510688       0.01544268      -0.01637643
Cl       0.00181562      -0.00173014      -0.00240514       12       0.26261153      -0.15845562      -0.01099982       0.01945992      -0.01070677      -0.00715804
13
Lattice="7.26870274 0.0 0.0 3.634351370000001 6.294881225397555 0.0 3.634351370000001 2.0982937417991856 5.934870934989993" Properties=species:S:1:pos:R:3:spacegroup_kinds:I:1:momenta:R:3:forces:R:3 spacegroup="P 1" unit_cell=conventional occupancy="_JSON {\"0\": {\"Li\": 1}, \"1\": {\"Li\": 1}, \"2\": {\"Li\": 1}, \"3\": {\"Li\": 1}, \"4\": {\"Li\": 1}, \"5\": {\"Li\": 1}, \"6\": {\"P\": 1}, \"7\": {\"S\": 1}, \"8\": {\"S\": 1}, \"9\": {\"S\": 1}, \"10\": {\"S\": 1}, \"11\": {\"S\": 1}, \"12\": {\"Cl\": 1}}" energy=-53.35584259033203 free_energy=-53.35584259033203 stress="0.00032042479142546654 -0.0004938003839924932 -0.0003365269221831113 -0.0004938003839924932 -0.00042393922922201455 0.0002866645809262991 -0.0003365269221831113 0.0002866645809262991 -0.002235432155430317" pbc="T T T"
Li       9.23770283       7.24940505       3.09642534        0      -0.21134340       0.02855551      -0.13767497       0.07479364      -0.02089122       0.05465179
Li      12.53375124       5.34112479       5.78491712        1      -0.30497765      -0.05611644      -0.21718824       0.05760961      -0.03842848       0.08449141
Li       9.24750465       5.36585887       5.80946324        2      -0.13793361       0.23159692       0.20167641      -0.00632725       0.01260793      -0.04859944
Li      12.55446053       7.24637937       3.11949967        3      -0.02590959       0.03020622       0.05540825       0.03659767       0.03324921      -0.02226353
Li      10.90276113       4.38569770       3.09448864        4      -0.07656777      -0.13093084      -0.29321306      -0.00923523       0.06841678       0.04372971
Li      10.87522144       8.20883318       5.80714328        5      -0.29697413       0.09516714       0.21817971      -0.01567052      -0.06535801      -0.06167482
P        7.26562990       4.19827107       2.97788752        6      -0.04337291       0.05762006       0.58351082       0.13751096      -0.11785908      -0.32758170
S        7.27431280       6.13184278       2.27186209        7       0.35509967      -0.09374156      -0.60633938      -0.07347775      -0.01606713       0.08634859
S        8.95711854       3.22821537       2.28767944        8       0.29453260      -0.07939482       0.30769629      -0.17672460       0.03021174      -0.01017451
S        5.58491049       3.22699048       2.28252013        9      -0.31512648       0.00427192       0.29480373       0.07664033       0.03810005       0.03480405
S        7.27011352       4.18935802       5.01806367       10       0.41162111      -0.46089728      -0.34269490      -0.02936938       0.08852607       0.21326104
S       10.90466568       6.30088629       4.45228170       11      -0.09941160       0.67668907      -0.01637347      -0.10195033       0.00026772      -0.03877747
Cl       0.00388553      -0.00324459      -0.00240707       12       0.45036378      -0.30302589      -0.04779119       0.02960277      -0.01277561      -0.00821511
13
Lattice="7.26870274 0.0 0.0 3.634351370000001 6.294881225397555 0.0 3.634351370000001 2.0982937417991856 5.934870934989993" Properties=species:S:1:pos:R:3:spacegroup_kinds:I:1:momenta:R:3:forces:R:3 spacegroup="P 1" unit_cell=conventional occupancy="_JSON {\"0\": {\"Li\": 1}, \"1\": {\"Li\": 1}, \"2\": {\"Li\": 1}, \"3\": {\"Li\": 1}, \"4\": {\"Li\": 1}, \"5\": {\"Li\": 1}, \"6\": {\"P\": 1}, \"7\": {\"S\": 1}, \"8\": {\"S\": 1}, \"9\": {\"S\": 1}, \"10\": {\"S\": 1}, \"11\": {\"S\": 1}, \"12\": {\"Cl\": 1}}" energy=-53.34695053100586 free_energy=-53.34695053100586 stress="0.0004708744818344712 -0.0006012473022565246 -0.0005048488383181393 -0.0006012473022565246 -0.00017902321997098625 0.00038626909372396767 -0.0005048488383181393 0.00038626909372396767 -0.0028498745523393154" pbc="T T T"
Li       9.23107500       7.24940377       3.09008300        0      -0.24333503      -0.00772435      -0.18119877       0.11100856      -0.02799108       0.07944898
Li      12.52357925       5.34051367       5.77571991        1      -0.25956908      -0.02845629      -0.27950503       0.09338356      -0.06279679       0.12597822
Li       9.24224857       5.37397857       5.81468736        2      -0.12353413       0.28038499       0.11089720       0.00344706       0.02616786      -0.07169955
Li      12.55348748       7.24781278       3.12083651        3       0.02505855       0.01810680       0.09221623       0.04573496       0.03409423      -0.02742073
Li      10.90137618       4.38050159       3.08377569        4      -0.01382265      -0.14400675      -0.23258158      -0.01283738       0.12605210       0.07887743
Li      10.86481643       8.21262798       5.81628495        5      -0.39622338       0.10496892       0.30474468      -0.02363888      -0.08902822      -0.10268996
P        7.26512373       4.19757491       2.98199149        6       0.00612011      -0.13212887       0.56490941       0.16798139      -0.13113369      -0.45523959
S        7.27759858       6.13068216       2.26807195        7       0.46228714      -0.19126579      -0.47584749      -0.11133383      -0.03966287       0.13614404
S        8.95864821       3.22803622       2.28935214        8       0.18503688      -0.10985488       0.11410489      -0.21873276       0.02811477      -0.04055452
S        5.58289213       3.22644791       2.28387789        9      -0.29103532      -0.07349418       0.11891846       0.10747587       0.05154530       0.04185654
S        7.27337745       4.18554679       5.01534782       10       0.47784436      -0.57516804      -0.46197182      -0.05712636       0.12326665       0.31038377
S       10.90389583       6.30681059       4.45317397       11      -0.22077607       0.85440428       0.16058404      -0.14635865      -0.02181115      -0.07006027
Cl       0.00633270      -0.00437467      -0.00156187       12       0.39194862       0.00423415       0.16472977       0.04099640      -0.01681710      -0.00502433
13
Lattice="7.26870274 0.0 0.0 3.634351370000001 6.294881225397555 0.0 3.634351370000001 2.0982937417991856 5.934870934989993" Properties=species:S:1:pos:R:3:spacegroup_kinds:I:1:momenta:R:3:forces:R:3 spacegroup="P 1" unit_cell=conventional occupancy="_JSON {\"0\": {\"Li\": 1}, \"1\": {\"Li\": 1}, \"2\": {\"Li\": 1}, \"3\": {\"Li\": 1}, \"4\": {\"Li\": 1}, \"5\": {\"Li\": 1}, \"6\": {\"P\": 1}, \"7\": {\"S\": 1}, \"8\": {\"S\": 1}, \"9\": {\"S\": 1}, \"10\": {\"S\": 1}, \"11\": {\"S\": 1}, \"12\": {\"Cl\": 1}}" energy=-53.33578109741211 free_energy=-53.33578109741211 stress="0.0006281403475441039 -0.0006940463208593428 -0.0006196702597662807 -0.0006940463208593428 2.3892896933830343e-05 0.0005430244491435587 -0.0006196702597662807 0.0005430244491435587 -0.00368976010940969" pbc="T T T"
Li       9.22403336       7.24933296       3.08607835        0      -0.14321114      -0.00754592      -0.04763880       0.14259918      -0.02620359       0.09817466
Li      12.51546948       5.34062101       5.76694874        1      -0.30706247       0.01583209      -0.27464910       0.11862521      -0.08196941       0.16181219
Li       9.23854007       5.38627792       5.81903820        2      -0.06852666       0.43486196       0.15795650      -0.00309125       0.03034256      -0.08696922
Li      12.55614372       7.24821446       3.12396885        3       0.12170551       0.00761807       0.07986838       0.04286832       0.03598543      -0.02531435
Li      10.90043367       4.37467479       3.07738389        4      -0.04399920      -0.14811403      -0.15052727      -0.01731003       0.16816948       0.10623699
Li      10.84974657       8.21701265       5.82720962        5      -0.42710455       0.21108252       0.29178522      -0.03507150      -0.11440207      -0.15185063
P        7.26550943       4.19679984       2.98633118        6       0.02961140      -0.03032998       0.42045807       0.18349507      -0.16269648      -0.59923643
S        7.28107330       6.12877663       2.26467645        7       0.58633551      -0.29062742      -0.32383424      -0.14055811      -0.05315886       0.18551967
S        8.95932437       3.22607355       2.29044212        8      -0.18042220      -0.34316120       0.11036395      -0.24535085       0.03311899      -0.06504987
S        5.58202790       3.22588838       2.28374326        9      -0.02421195      -0.17189339      -0.06683469       0.13291018       0.06766491       0.05526106
S        7.27598321       4.18146412       5.01198393       10       0.30692035      -0.63628702      -0.30943903      -0.07248443       0.16099389       0.42545369
S       10.90076891       6.31299120       4.45405447       11      -0.41888967       0.84805812       0.03057478      -0.16305882      -0.03443001      -0.09622046
Cl       0.00982027      -0.00373545      -0.00077812       12       0.56885507       0.11050620       0.08191620       0.05642699      -0.02341490      -0.00781735
13
Lattice="7.26870274 0.0 0.0 3.634351370000001 6.294881225397555 0.0 3.634351370000001 2.0982937417991856 5.934870934989993" Properties=species:S:1:pos:R:3:spacegroup_kinds:I:1:momenta:R:3:forces:R:3 spacegroup="P 1" unit_cell=conventional occupancy="_JSON {\"0\": {\"Li\": 1}, \"1\": {\"Li\": 1}, \"2\": {\"Li\": 1}, \"3\": {\"Li\": 1}, \"4\": {\"Li\": 1}, \"5\": {\"Li\": 1}, \"6\": {\"P\": 1}, \"7\": {\"S\": 1}, \"8\": {\"S\": 1}, \"9\": {\"S\": 1}, \"10\": {\"S\": 1}, \"11\": {\"S\": 1}, \"12\": {\"Cl\": 1}}" energy=-53.324275970458984 free_energy=-53.324275970458984 stress="0.0006398664554581046 -0.0007231882773339748 -0.0008006730349734426 -0.0007231882773339748 0.0001423457288183272 0.0006809440674260259 -0.0008006730349734426 0.0006809440674260259 -0.004302581772208214" pbc="T T T"
Li       9.21782408       7.25119526       3.08480079        0      -0.17658542       0.12076300      -0.01071792       0.16867533      -0.02666327       0.11567423
Li      12.50410302       5.33945547       5.75704090        1      -0.34980316      -0.00694747      -0.30974644       0.15458262      -0.10923712       0.20083719
Li       9.23542603       5.40113144       5.82524750        2      -0.10569528       0.38804205       0.13919706      -0.02027980       0.03060183      -0.10413183
Li      12.56081353       7.24770394       3.12527019        3       0.10039509       0.03198681       0.01345102       0.02926662       0.03473609      -0.01716534
Li      10.89779118       4.36953743       3.07330281        4      -0.11116195      -0.12595689      -0.17244510      -0.02122173       0.19886266       0.12540928
Li      10.83422146       8.22302537       5.83493421        5      -0.44012618       0.17631480       0.11689490      -0.04754885      -0.14127298      -0.19025667
P        7.26587729       4.19625966       2.98876396        6       0.08999517      -0.07107943       0.32744137       0.19908485      -0.18400964      -0.68221664
S        7.28632534       6.12769859       2.26102162        7       0.83225028      -0.02921663      -0.56964227      -0.16958565      -0.07281157       0.22795212
S        8.95775573       3.22316823       2.29026118        8      -0.24137433      -0.47497688      -0.06373245      -0.24838136       0.03624924      -0.09350061
S        5.58191460       3.22486634       2.28455482        9       0.14366770      -0.14207381       0.25900367       0.13652544       0.08842014       0.06217119
S        7.27871423       4.17644082       5.00959368       10       0.29141799      -0.67240727      -0.26401740      -0.08557892       0.21267119       0.49808332
S       10.89648635       6.31926229       4.45554897       11      -0.62618658       0.74717551       0.28545163      -0.17099702      -0.03902653      -0.13020353
Cl       0.01433183      -0.00308102       0.00057312       12       0.59320666       0.05837624       0.24886191       0.07545852      -0.02852008      -0.01265275
13
Lattice="7.26870274 0.0 0.0 3.634351370000001 6.294881225397555 0.0 3.634351370000001 2.0982937417991856 5.934870934989993" Properties=species:S:1:pos:R:3:spacegroup_kinds:I:1:momenta:R:3:forces:R:3 spacegroup="P 1" unit_cell=conventional occupancy="_JSON {\"0\": {\"Li\": 1}, \"1\": {\"Li\": 1}, \"2\": {\"Li\": 1}, \"3\": {\"Li\": 1}, \"4\": {\"Li\": 1}, \"5\": {\"Li\": 1}, \"6\": {\"P\": 1}, \"7\": {\"S\": 1}, \"8\": {\"S\": 1}, \"9\": {\"S\": 1}, \"10\": {\"S\": 1}, \"11\": {\"S\": 1}, \"12\": {\"Cl\": 1}}" energy=-53.313392639160156 free_energy=-53.313392639160156 stress="0.0004943681415170431 -0.0007856867159716785 -0.001074338797479868 -0.0007856867159716785 0.00013723588199354708 0.0007863977225497365 -0.001074338797479868 0.0007863977225497365 -0.004572760779410601" pbc="T T T"
Li       9.21457647       7.25414274       3.08285831        0      -0.04984990       0.07865359      -0.06373861       0.18886478      -0.03105527       0.12906189
Li      12.49241087       5.33864652       5.74618661        1      -0.26654781      -0.09982883      -0.28698699       0.19492936      -0.13907747       0.24428990
Li       9.23123994       5.41426903       5.82939798        2      -0.13066498       0.37178192       0.11996051      -0.03656357       0.03010131      -0.11239395
Li      12.56599099       7.24740604       3.12390123        3       0.17211573       0.02738307      -0.08339622       0.00790436       0.02417492      -0.00192052
Li      10.89582471       4.36558129       3.06581462        4      -0.02324040      -0.09126886      -0.22293974      -0.02981537       0.23074538       0.14268781
Li      10.81850545       8.22795451       5.83869977        5      -0.43618429       0.07967269       0.05491079      -0.05994720      -0.16025782      -0.21254781
P        7.26630358       4.19621733       2.99010960        6      -0.02892272       0.09316821       0.15585997       0.23266323      -0.19512776      -0.71810406
S        7.29258153       6.12726792       2.25743267        7       0.76778250      -0.11659644      -0.41159193      -0.19311100      -0.09332924       0.25856772
S        8.95580921       3.21875276       2.29018162        8      -0.20018679      -0.52833788      -0.01638150      -0.25144443       0.05006748      -0.12166158
S        5.58285493       3.22511381       2.28655386        9       0.11095513       0.03567156       0.24526954       0.12198442       0.09679213       0.05066866
S        7.28056049       4.17227177       5.00852301       10       0.16880135      -0.47992797      -0.12853021      -0.09642874       0.25892359       0.53313494
S       10.89160823       6.32407591       4.45752683       11      -0.59202946       0.54538296       0.37605124      -0.17354423      -0.03773930      -0.17837708
Cl       0.01800243      -0.00283223       0.00283393       12       0.50797164       0.08424600       0.26151313       0.09450844      -0.03421798      -0.01340592
13
Lattice="7.26870274 0.0 0.0 3.634351370000001 6.294881225397555 0.0 3.634351370000001 2.0982937417991856 5.934870934989993" Properties=species:S:1:pos:R:3:spacegroup_kinds:I:1:momenta:R:3:forces:R:3 spacegroup="P 1" unit_cell=conventional occupancy="_JSON {\"0\": {\"Li\": 1}, \"1\": {\"Li\": 1}, \"2\": {\"Li\": 1}, \"3\": {\"Li\": 1}, \"4\": {\"Li\": 1}, \"5\": {\"Li\": 1}, \"6\": {\"P\": 1}, \"7\": {\"S\": 1}, \"8\": {\"S\": 1}, \"9\": {\"S\": 1}, \"10\": {\"S\": 1}, \"11\": {\"S\": 1}, \"12\": {\"Cl\": 1}}" energy=-53.305702209472656 free_energy=-53.305702209472656 stress="0.0004007651878055185 -0.0009592887945473194 -0.0014002359239384532 -0.0009592887945473194 -8.910482574719936e-05 0.0008189521031454206 -0.0014002359239384532 0.0008189521031454206 -0.00463288277387619" pbc="T T T"
Li       9.21271824       7.25555986       3.08136236        0      -0.06523141       0.01724954      -0.01513087       0.20236486      -0.02987181       0.13577336
Li      12.48344327       5.33337404       5.73661029        1      -0.24396309      -0.18397236      -0.26626453       0.21763498      -0.16015524       0.27898195
Li       9.22706710       5.42641371       5.83293468        2      -0.18853233       0.38970507       0.13176897      -0.05474595       0.02658003      -0.11730786
Li      12.57200288       7.24989283       3.12138227        3       0.18446977       0.14719830      -0.06791853      -0.01796505       0.00393848       0.02098320
Li      10.89591951       4.36645138       3.05687415        4       0.01992347       0.04904101      -0.31529166      -0.04547238       0.25390801       0.15187356
Li      10.80284030       8.22939066       5.83764522        5      -0.49716933       0.08047685      -0.15044869      -0.07143963      -0.16255602      -0.21094747
P        7.26555384       4.19667783       2.99063464        6      -0.07552484       0.10246907      -0.02264176       0.30602932      -0.21678424      -0.72763628
S        7.29845680       6.12606602       2.25415896        7       0.85889529      -0.14793458      -0.47746547      -0.21270892      -0.09481939       0.26803470
S        8.95523346       3.21433890       2.29031093        8      -0.14644453      -0.67617989      -0.01555982      -0.27050525       0.08206862      -0.13878094
S        5.58417042       3.22686657       2.28881618        9       0.26267928       0.33268802       0.25835319       0.08828603       0.08292256       0.03102225
S        7.28156700       4.16824878       5.00791906       10       0.10435183      -0.50178888       0.00659917      -0.09924777       0.29467905       0.54944849
S       10.88646610       6.32797555       4.46042882       11      -0.54824397       0.30017356       0.53395343      -0.15711245      -0.04038412      -0.23037732
Cl       0.02121569      -0.00233591       0.00509831       12       0.33478987       0.09087432       0.40004656       0.11488216      -0.03952595      -0.01106769
13