13
Lattice="7.26870274 0.0 0.0 3.634351370000001 6.294881225397555 0.0 3.634351370000001 2.0982937417991856 5.934870934989993" Properties=species:S:1:pos:R:3:spacegroup_kinds:I:1:forces:R:3 spacegroup="P 1" unit_cell=conventional occupancy="_JSON {\"0\": {\"Li\": 1}, \"1\": {\"Li\": 1}, \"2\": {\"Li\": 1}, \"3\": {\"Li\": 1}, \"4\": {\"Li\": 1}, \"5\": {\"Li\": 1}, \"6\": {\"P\": 1}, \"7\": {\"S\": 1}, \"8\": {\"S\": 1}, \"9\": {\"S\": 1}, \"10\": {\"S\": 1}, \"11\": {\"S\": 1}, \"12\": {\"Cl\": 1}}" energy=-53.3634147644043 free_energy=-53.3634147644043 stress="-0.0007941978983581066 -2.40125814343628e-07 -1.6471430797082576e-07 -2.40125814343628e-07 -0.0007939285133033991 -1.0221801716170376e-07 -1.6471430797082576e-07 -1.0221801716170376e-07 -0.0007939145434647799" pbc="T T T"
Li       9.25387995       7.24703237       3.10460814        0       0.00422515      -0.00243408       0.00344763
Li      12.55222827       5.34273008       5.79769826        1      -0.00421098       0.00243285      -0.00344134
Li       9.25387995       5.34273008       5.79769826        2       0.00422496       0.00243967      -0.00344734
Li      12.55222827       7.24703237       3.10460814        3      -0.00421273      -0.00243134       0.00344197
Li      10.90305411       4.39057894       3.10460814        4       0.00000250       0.00487688       0.00344901
Li      10.90305411       8.19918351       5.79769826        5       0.00000185      -0.00486463      -0.00344211
P        7.26870274       4.19658748       2.96743547        6       0.00008501       0.00004659       0.00003623
S        7.26870637       6.13578650       2.28182731        7      -0.00001816      -0.01090947       0.00384751
S        8.94810016       3.22699113       2.28182731        8      -0.00945702       0.00544041       0.00384676
S        5.58931258       3.22699113       2.28182731        9       0.00937826       0.00541312       0.00383036
S        7.26870637       4.19658958       5.02426588       10      -0.00001870      -0.00000953      -0.01157008
S       10.90305411       6.29488123       4.45115320       11      -0.00000210      -0.00000133      -0.00000006
Cl       0.00000000       0.00000000       0.00000000       12       0.00000195       0.00000092       0.00000151
