56
Lattice="10.7619164 0.0 0.0 -9.665296305262016 4.732958053065482 0.0 -0.5483100463354086 -2.3664790220718444 10.484177494289693" Properties=species:S:1:pos:R:3:spacegroup_kinds:I:1:momenta:R:3:forces:R:3 spacegroup="P 1" unit_cell=conventional occupancy="_JSON {\"0\": {\"H\": 1}, \"1\": {\"H\": 1}, \"2\": {\"H\": 1}, \"3\": {\"H\": 1}, \"4\": {\"H\": 1}, \"5\": {\"H\": 1}, \"6\": {\"H\": 1}, \"7\": {\"H\": 1}, \"8\": {\"H\": 1}, \"9\": {\"H\": 1}, \"10\": {\"H\": 1}, \"11\": {\"H\": 1}, \"12\": {\"H\": 1}, \"13\": {\"H\": 1}, \"14\": {\"H\": 1}, \"15\": {\"H\": 1}, \"16\": {\"H\": 1}, \"17\": {\"H\": 1}, \"18\": {\"H\": 1}, \"19\": {\"H\": 1}, \"20\": {\"H\": 1}, \"21\": {\"H\": 1}, \"22\": {\"H\": 1}, \"23\": {\"H\": 1}, \"24\": {\"H\": 1}, \"25\": {\"H\": 1}, \"26\": {\"H\": 1}, \"27\": {\"H\": 1}, \"28\": {\"H\": 1}, \"29\": {\"H\": 1}, \"30\": {\"H\": 1}, \"31\": {\"H\": 1}, \"32\": {\"C\": 1}, \"33\": {\"C\": 1}, \"34\": {\"C\": 1}, \"35\": {\"C\": 1}, \"36\": {\"C\": 1}, \"37\": {\"C\": 1}, \"38\": {\"C\": 1}, \"39\": {\"C\": 1}, \"40\": {\"C\": 1}, \"41\": {\"C\": 1}, \"42\": {\"C\": 1}, \"43\": {\"C\": 1}, \"44\": {\"C\": 1}, \"45\": {\"C\": 1}, \"46\": {\"C\": 1}, \"47\": {\"C\": 1}, \"48\": {\"O\": 1}, \"49\": {\"O\": 1}, \"50\": {\"O\": 1}, \"51\": {\"O\": 1}, \"52\": {\"O\": 1}, \"53\": {\"O\": 1}, \"54\": {\"O\": 1}, \"55\": {\"O\": 1}}" energy=-313.621826171875 free_energy=-313.621826171875 stress="-0.006905497517436743 -0.0013852871488779783 -0.004504729527980089 -0.0013852871488779783 0.009439160116016865 0.005599986296147108 -0.004504729527980089 0.005599986296147108 0.013407089747488499" pbc="T T T"
H        0.49738844       1.84331539       1.77824708        0      -0.10613533      -0.09781601       0.11564472      -0.18202242       0.31332281       0.59539658
H        0.10556179      -0.11663734       8.27653501        1       0.04015924      -0.13169449       0.14437813      -0.36897862      -0.78897953       0.22591038
H        6.62289151      -0.91207400       5.20265717        2      -0.16864380       0.10450195      -0.19164049       0.98593998      -0.03108481       0.77321923
H        3.36922845       0.56254895       5.08036063        3       0.12068524      -0.12390757       0.11664248      -0.39408284      -0.59533966      -0.23535554
H        5.95301283       0.59228751       3.38812088        4       0.14111340      -0.33747126      -0.07872082      -0.93092167      -0.50391698       0.87668061
H        5.01743953       0.42520626       7.32442041        5      -0.23162842       0.06489327      -0.14197807      -0.38864708      -1.26104832      -0.47847545
H       -1.57731816       0.54128686      10.53958322        6      -0.12407273      -0.08816566      -0.07763983      -0.37741718      -0.46803018       0.30723011
H        2.69863427       2.00433378       0.26116704        7      -0.05404051       0.01557235      -0.10225855      -0.72496223      -0.67534351      -0.86532074
H       -1.22303979       1.63673979       1.75940529        8      -0.05424824       0.24253114      -0.13897851      -0.49742007      -0.09367067       0.10530236
H       -8.93359095       2.96970933       8.47514783        9      -0.06041947      -0.12559598      -0.10761919       0.36620489      -0.63051701       0.55257404
H       -2.26849142       4.25936898       6.83350214       10       0.20578873       0.12214478       0.33238067      -0.06950012      -0.47619444      -0.34378144
H       -6.68836073       4.95609544       3.39407437       11      -0.06212359       0.10325944      -0.15892699       0.13253869      -0.56485748       0.15245271
H       -3.12925541       0.32645900       3.01954366       12       0.09286643       0.17897904      -0.00989667       0.31409001       0.11225719       0.01380398
H       -6.80751022       1.79512290       7.74588609       13       0.11313855      -0.05419724      -0.04503994      -2.35594416       0.59495044      -0.52510118
H       -1.67751187       0.97559878       8.80862458       14       0.00516186      -0.30016425      -0.16851577      -0.66054368       0.17537235       0.81925923
H       -7.85157893       2.25969117       2.02092886       15       0.06193730       0.16966508       0.04109085       0.45021647       0.30493245      -0.97372377
H       -1.03679262       0.54726066       4.10971803       16       0.09384531       0.18126096      -0.07858795       0.29053974       0.47455668       0.73893195
H        1.41496415       2.60741869       5.94194794       17       0.17914763       0.16208118      -0.08142788       0.04019729      -0.18983461       0.67822683
H       -0.64058360       2.00872450       6.06364848       18      -0.05634267       0.12337233       0.04032458      -0.53551209       0.51595980      -0.09275717
H        0.85977724      -0.92446398       4.06230113       19       0.08226649       0.01615436       0.13954094      -0.43777424      -0.05474913       0.42652518
H        7.07832348       1.52716340       0.77918388       20       0.03745946       0.06298988      -0.11847564      -0.51151317      -0.36469573      -0.19009870
H       -5.65481883       2.28567728       9.73114975       21       0.07723446       0.36926454      -0.07796207       0.09997541      -0.39056420       0.05156811
H        6.08095744      -2.02800091       9.57309388       22       0.04996196       0.13992260      -0.04251267       0.10451920      -0.44055551      -0.00563595
H       -5.39307810       3.26285560       1.28813586       23      -0.08191862      -0.05415599       0.26987100      -0.86360562      -0.75486463      -0.77635646
H       -0.07299392       0.27971683       1.81917010       24       0.13898012       0.34269313       0.14181115      -0.42564309      -0.34436259       0.62045252
H       -1.06700109      -1.51563957       8.21163894       25      -0.20146057       0.01372965       0.07616542      -0.17208794      -0.24384362       0.51164532
H       -2.96209893       2.60530216       6.43440220       26       0.06315655      -0.07175181      -0.16381491       0.16209257       0.09858187       0.31126782
H       -6.35720020       3.51669327       4.57538945       27       0.16449663       0.18567959       0.02440274      -0.60309899       1.40273166      -0.34498483
H       -3.82677286       2.00991120       3.18430560       28       0.08980709      -0.11710419      -0.00472060       0.23108631       0.02060386      -0.20068702
H       -5.17636442       2.03285228       7.19923464       29       0.10905437      -0.18779528       0.15105862      -0.36808267      -0.23564769       0.74254197
H       -0.79357739       4.53174481      -0.43569584       30      -0.12628039      -0.10201763      -0.01900713      -0.09976398       0.06219598       0.11299654
H        2.31575671       1.30675566      11.36317794       31       0.12164154       0.07458394      -0.08519282       0.08104025      -0.48912075      -0.09376562
C       -0.37163620       1.38708486       3.80590669       32       0.82677636       0.29513656       0.09766050       0.43049392      -0.84295940      -2.02713013
C        0.11847918      -1.18778285       6.49983774       33      -0.62840543      -0.18736866      -0.14628073      -0.37041688       0.27214956      -0.96541977
C       -0.97555889       2.96185323       5.57576508       34      -0.36448985      -1.07571497       0.20948555       0.37155271       0.17796925       0.59155589
C        1.35011577      -0.15700505       4.68315328       35      -0.02227775       0.95830954       0.13073276       0.73834205       1.50494957       0.40339318
C        6.36784120       0.86650858       1.33870128       36       0.30590355       0.88519273       1.28776873       1.97926974      -0.30296591       0.89318210
C       -5.53677821       1.29363407       9.24627696       37       0.27688647      -0.37684232       0.66636706      -0.66257513      -0.77058345       0.58604276
C       -3.39932668       1.69730075      10.02118778       38      -0.84111610      -0.44256905       0.59809740       0.37919825       0.54999632       0.65976566
C        4.71880450       2.50518185       0.70336297       39       0.38984667       0.88224412      -0.51305375      -0.59658730       1.44277287       0.49371624
C       -0.32683944       1.26219668       2.24609220       40      -0.63948410       0.50546028       0.23424448       0.77352828       0.79701662      -0.39456624
C       -0.05210465      -1.19852054       8.01058163       41       0.11582533      -0.65736761      -0.92748013       0.85169488       1.37443566      -1.02300024
C       -2.37909933       3.46525762       6.06278715       42      -0.05353546       0.08467180      -0.15002944      -0.40583995      -0.60532928      -1.67187452
C        2.83806347      -0.17358532       4.41939538       43       0.55229963       0.76816006      -0.43150265       1.06820846      -0.67908204       0.54366243
C        6.77902016       0.98017853       2.84378931       44      -1.12307135      -0.45029473       0.26639901      -0.51441538       0.02889722      -1.28143680
C       -5.86817684       1.36776535       7.79427945       45      -0.98979958      -0.05587793      -0.83441601       2.87887216       1.13957238      -0.55467403
C       -1.97699402       1.28319927       9.85895620       46       0.40696831      -0.18668133       0.33791124       1.72741425       0.51334900      -1.56752729
C        3.19008766       2.61285358       0.97606082       47       0.25747404       0.90121026      -0.18333284       1.07157040       1.22873855       1.82997870
O       -0.85758719       2.66103177       4.11713033       48       0.61684411      -0.37118591       1.25664137      -0.17585036       0.40347454       1.06925583
O        1.08909392      -0.23997556       6.12862842       49      -0.39618386      -0.37804571      -0.11483823       0.12260067      -0.37597567      -0.82796896
O       -1.16050474      -0.72093714       5.97406321       50      -0.34983932      -1.05740334      -0.27246730      -0.47367215      -0.41498876      -0.96765435
O        1.00795475       1.19208945       4.24044434       51      -0.03056983       0.15482605      -1.24559205      -1.03327966      -0.52625585       0.63129097
O       -3.10184407       4.20162623       0.97719079       52      -0.29226532       0.28802386      -0.94690459      -0.31202132       1.32850361      -0.04798147
O        4.30825694       0.33413983       9.75623665       53       0.02704217      -1.15722817      -0.33727118      -0.25940689       0.04012367       0.50475872
O       -4.24389652       0.74756655       9.49746242       54       0.41595586      -0.82784391       0.02625896       0.13963546       0.06729549      -0.42571524
O        5.02961377       1.21054920       1.07684127       55       0.87862733       0.61974625       1.29120707      -0.01923655      -0.82934785       0.05840501
