56
Lattice="10.7619164 0.0 0.0 -9.665296305262016 4.732958053065482 0.0 -0.5483100463354086 -2.3664790220718444 10.484177494289693" Properties=species:S:1:pos:R:3:spacegroup_kinds:I:1:momenta:R:3:forces:R:3 spacegroup="P 1" unit_cell=conventional occupancy="_JSON {\"0\": {\"H\": 1}, \"1\": {\"H\": 1}, \"2\": {\"H\": 1}, \"3\": {\"H\": 1}, \"4\": {\"H\": 1}, \"5\": {\"H\": 1}, \"6\": {\"H\": 1}, \"7\": {\"H\": 1}, \"8\": {\"H\": 1}, \"9\": {\"H\": 1}, \"10\": {\"H\": 1}, \"11\": {\"H\": 1}, \"12\": {\"H\": 1}, \"13\": {\"H\": 1}, \"14\": {\"H\": 1}, \"15\": {\"H\": 1}, \"16\": {\"H\": 1}, \"17\": {\"H\": 1}, \"18\": {\"H\": 1}, \"19\": {\"H\": 1}, \"20\": {\"H\": 1}, \"21\": {\"H\": 1}, \"22\": {\"H\": 1}, \"23\": {\"H\": 1}, \"24\": {\"H\": 1}, \"25\": {\"H\": 1}, \"26\": {\"H\": 1}, \"27\": {\"H\": 1}, \"28\": {\"H\": 1}, \"29\": {\"H\": 1}, \"30\": {\"H\": 1}, \"31\": {\"H\": 1}, \"32\": {\"C\": 1}, \"33\": {\"C\": 1}, \"34\": {\"C\": 1}, \"35\": {\"C\": 1}, \"36\": {\"C\": 1}, \"37\": {\"C\": 1}, \"38\": {\"C\": 1}, \"39\": {\"C\": 1}, \"40\": {\"C\": 1}, \"41\": {\"C\": 1}, \"42\": {\"C\": 1}, \"43\": {\"C\": 1}, \"44\": {\"C\": 1}, \"45\": {\"C\": 1}, \"46\": {\"C\": 1}, \"47\": {\"C\": 1}, \"48\": {\"O\": 1}, \"49\": {\"O\": 1}, \"50\": {\"O\": 1}, \"51\": {\"O\": 1}, \"52\": {\"O\": 1}, \"53\": {\"O\": 1}, \"54\": {\"O\": 1}, \"55\": {\"O\": 1}}" energy=-315.20623779296875 free_energy=-315.20623779296875 stress="0.0015259933425113559 -0.0007349823135882616 -5.780553351542039e-07 -0.0007349823135882616 -0.001476810546591878 5.80120236293169e-08 -5.780553351542039e-07 5.80120236293169e-08 0.0016979774227365851" pbc="T T T"
H       -0.01248427       2.27696696       1.83153339        0       0.26354636       0.05758816       0.17128558       0.07122737       0.02707820       0.05251661
H        0.46428407      -0.32702137       8.65264411        1       0.35723632       0.30052336      -0.15421514      -0.05205600       0.05564536      -0.05251561
H        7.11696904      -0.62167877       5.76820574        2       0.13651140      -0.03657588      -0.02448058       0.06071833       0.02959748      -0.06332520
H        3.54843712       0.20514534       4.71597175        3       0.04495575       0.01373704       0.24194406      -0.04159921       0.05318699       0.06330395
H        5.94175252       0.08951207       3.41055536        4       0.10004105       0.00919574       0.06893732      -0.07122711      -0.02707674      -0.05251791
H        4.91667413       0.32702137       7.07362213        5       0.03762731       0.23702154      -0.03633186       0.05205734      -0.05563810       0.05251915
H       -1.73601084       0.62167878       9.95806050        6       0.04090260      -0.15000140      -0.41043770      -0.06071921      -0.02958663       0.06332392
H        2.38083113       2.16133369       0.52611700        7       0.07639930       0.13373956      -0.11953039       0.04159808      -0.05318613      -0.06330114
H       -1.38564785       1.18011340       2.11584331        8       0.34764813      -0.24942510       0.01968671       0.00912194       0.09641421       0.00989624
H       -8.45014457       2.81694541       8.36833418        9      -0.04487542       0.24826795       0.27191556       0.03391367       0.09078121      -0.00994039
H       -2.58250803       2.70418269       6.85836100       10       0.00836639       0.05472545      -0.13232917       0.03144366       0.09145357       0.01228175
H       -6.70499477       3.65935988       3.62581649       11      -0.35280026      -0.06406840       0.05024236       0.01202231       0.09588283      -0.01239151
H       -3.44700030       1.18636563       3.12624543       12       0.17759995       0.19181929      -0.04741865      -0.00912169      -0.09641379      -0.00989531
H       -6.59610993       1.91601265       7.35793206       13      -0.06659844      -0.18039638      -0.21144164      -0.03391649      -0.09078133       0.00994120
H       -1.70183007       2.02877537       8.86790524       14      -0.29590695       0.31510437      -0.07166042      -0.03144007      -0.09144853      -0.01229310
H       -7.79294969       3.44007720       1.61627226       15      -0.10166361      -0.21365327       0.15571300      -0.01202444      -0.09588411       0.01239041
H       -0.77544238       0.72057867       4.36236141       16      -0.29135246      -0.04383699      -0.13778795      -0.05580219      -0.06497568       0.06553161
H        1.56164860       2.67260202       6.12181608       17       0.04513471      -0.09416448      -0.19034861       0.02151174      -0.08285711      -0.06550485
H       -0.46393564       1.89516633       6.16016720       18      -0.02388752       0.06229365       0.02104621       0.04679149      -0.08891384       0.03981843
H        0.70181139      -0.86845994       4.32401029       19       0.02574107      -0.11427781      -0.05287528      -0.08095931      -0.05914075      -0.03975132
H        6.70471062       1.64590036       0.87972733       20      -0.14286290      -0.07079985      -0.14118650       0.05580565       0.06498118      -0.06553409
H       -5.84598670       2.06035604       9.60445016       21      -0.29753233       0.02254640      -0.04431235      -0.02151366       0.08285360       0.06550378
H        5.84489385      -1.89516633       9.56609904       22      -0.28312851       0.06560536      -0.15494221      -0.04679290       0.08891500      -0.03981572
H       -5.53445954       3.23493897       0.91807845       23      -0.02208037       0.11416853       0.04301970       0.08095784       0.05914063       0.03974705
H        0.25131050       0.51347389       1.94957474       24       0.15959789      -0.21361364       0.07505588      -0.00851125      -0.01871604      -0.03717728
H       -0.54820374      -1.79480395       8.53460275       25      -0.12868866      -0.15316038      -0.08588331      -0.00033015      -0.02044829       0.03709363
H       -2.80766320       2.46899490       5.11315433       26      -0.07305533       0.00146869      -0.17781296      -0.04083849      -0.01125184       0.00405123
H       -6.60619587       3.34910738       5.37102316       27       0.12888264       0.07074453      -0.23064715       0.03167325      -0.02802466      -0.00411359
H       -5.08395866       1.85300514       3.29251401       28       0.22099581       0.30740365       0.21601993       0.00851502       0.01871212       0.03717740
H       -4.83275446       1.79480396       7.19166349       29      -0.04673026      -0.18471461       0.19482948       0.00034754       0.02045741      -0.03709874
H       -0.92836486       4.63044218       0.12893441       30      -0.09883902       0.19431951       0.04569436       0.04083276       0.01124342      -0.00406405
H        2.32185777       1.38385068      10.35524308       31       0.15211596       0.04921952       0.12080102      -0.03167636       0.02802785       0.00411051
C       -0.12835063       1.44534837       3.84841655       32      -0.28778073       0.91754073       0.18270710      -0.01445552       0.09213127      -0.08206615
C        0.20260826      -1.12485611       6.63576095       33       0.00096406       0.97078231      -0.67128192       0.05361615       0.07627240       0.08205721
C       -0.77226604       2.84130358       5.69336968       34      -0.96473690       0.45234422      -0.54337998      -0.06051266       0.10293026       0.03487872
C        1.39483372      -0.15433229       4.79080781       35       0.83737779      -0.34833687      -0.35976593       0.09947464       0.06571181      -0.03489264
C        6.05761888       0.92113066       1.39367220       36       0.73780001       0.71679960       1.01054651       0.01444738      -0.09213889       0.08206946
C       -5.58356646       1.12485611       9.09050530       37       0.36600935      -0.57579551       1.35161317      -0.05360214      -0.07626452      -0.08206081
C       -3.51207206       1.89165448      10.03289656       38      -0.27702103       0.36712178       0.74445208       0.06052428      -0.10293378      -0.03488906
C        4.53443453       2.52081132       0.45128094       39      -0.47025582       0.22782501       0.51146167      -0.09947228      -0.06571978       0.03490250
C       -0.32593927       1.35886302       2.34265801       40      -0.11966996      -0.73251108       0.28611321      -0.02487643      -0.04884160       0.03836678
C        0.34202778      -1.28942579       8.14151949       41       0.57030904      -0.50578053       0.01064034       0.00090442      -0.05509222      -0.03821172
C       -2.26824862       3.05565688       5.86632716       42      -0.48098077       0.96238649       0.55365818       0.02524446      -0.06073755       0.01393194
C        2.83264719      -0.61974062       4.61785033       43      -0.04860277      -0.55844948       0.33742963      -0.04931958      -0.04330879      -0.01374382
C        6.25520752       1.00761601       2.89943074       44      -0.70747446      -0.11378709      -0.42767829       0.02487099       0.04884356      -0.03836684
C       -5.72298598       1.28942580       7.58474676       45       0.19434055       0.24831833       0.14297097      -0.00092316       0.05507550       0.03821262
C       -2.01608948       1.67730118       9.85993908       46       0.09740524      -0.72425149      -0.69205550      -0.02525361       0.06073166      -0.01389986
C        3.09662106       2.98621965       0.62423841       47      -0.12331172      -0.02208015       0.38636924       0.04932702       0.04330578       0.01374431
O       -0.42625656       2.75924355       4.28180099       48       1.20625674       0.48604619      -0.44497158       0.00567051      -0.06416629       0.01081669
O        1.04798334      -0.07585512       6.20237650       49       0.42305791      -1.01659881      -0.20166176      -0.03317386      -0.05508588      -0.01086310
O       -1.17294689      -0.80803189       6.28015861       50      -0.36133290       0.99731317      -0.30860065      -0.00324894      -0.06212841      -0.01994158
O        1.24638404       1.12493657       4.20401888       51      -0.92624698      -0.21254257      -0.34164539      -0.02462158      -0.05716388       0.01989329
O       -3.30977150       4.34019353       0.96028775       52       0.26500009      -0.83301049      -0.49473951      -0.00567095       0.06416580      -0.01082122
O        4.33297486       0.07585512       9.52388974       53      -0.48283211      -0.49689578       1.25894465       0.03316887       0.05508654       0.01086733
O       -4.20801131       0.80803190       9.44610763       54       0.43498781      -0.06064940      -0.51538975       0.00324776       0.06213056       0.01994677
O        4.68288421       1.24154246       1.03806987       55       0.06343698      -0.82659266      -1.04828579       0.02462460       0.05716902      -0.01989753
56
Lattice="10.7619164 0.0 0.0 -9.665296305262016 4.732958053065482 0.0 -0.5483100463354086 -2.3664790220718444 10.484177494289693" Properties=species:S:1:pos:R:3:spacegroup_kinds:I:1:momenta:R:3:forces:R:3 spacegroup="P 1" unit_cell=conventional occupancy="_JSON {\"0\": {\"H\": 1}, \"1\": {\"H\": 1}, \"2\": {\"H\": 1}, \"3\": {\"H\": 1}, \"4\": {\"H\": 1}, \"5\": {\"H\": 1}, \"6\": {\"H\": 1}, \"7\": {\"H\": 1}, \"8\": {\"H\": 1}, \"9\": {\"H\": 1}, \"10\": {\"H\": 1}, \"11\": {\"H\": 1}, \"12\": {\"H\": 1}, \"13\": {\"H\": 1}, \"14\": {\"H\": 1}, \"15\": {\"H\": 1}, \"16\": {\"H\": 1}, \"17\": {\"H\": 1}, \"18\": {\"H\": 1}, \"19\": {\"H\": 1}, \"20\": {\"H\": 1}, \"21\": {\"H\": 1}, \"22\": {\"H\": 1}, \"23\": {\"H\": 1}, \"24\": {\"H\": 1}, \"25\": {\"H\": 1}, \"26\": {\"H\": 1}, \"27\": {\"H\": 1}, \"28\": {\"H\": 1}, \"29\": {\"H\": 1}, \"30\": {\"H\": 1}, \"31\": {\"H\": 1}, \"32\": {\"C\": 1}, \"33\": {\"C\": 1}, \"34\": {\"C\": 1}, \"35\": {\"C\": 1}, \"36\": {\"C\": 1}, \"37\": {\"C\": 1}, \"38\": {\"C\": 1}, \"39\": {\"C\": 1}, \"40\": {\"C\": 1}, \"41\": {\"C\": 1}, \"42\": {\"C\": 1}, \"43\": {\"C\": 1}, \"44\": {\"C\": 1}, \"45\": {\"C\": 1}, \"46\": {\"C\": 1}, \"47\": {\"C\": 1}, \"48\": {\"O\": 1}, \"49\": {\"O\": 1}, \"50\": {\"O\": 1}, \"51\": {\"O\": 1}, \"52\": {\"O\": 1}, \"53\": {\"O\": 1}, \"54\": {\"O\": 1}, \"55\": {\"O\": 1}}" energy=-314.163330078125 free_energy=-314.163330078125 stress="0.0017965054139494896 -0.0062950970605015755 0.004064949695020914 -0.0062950970605015755 0.002897571073845029 0.006800138857215643 0.004064949695020914 0.006800138857215643 -0.004473692737519741" pbc="T T T"
H        0.12223869       2.21335583       1.84744823        0      -0.06388218      -0.04108004      -0.23331077      -0.34890550      -0.46717715       0.26391652
H        0.31702074      -0.21474888       8.50409125        1      -0.41596668       0.28241800       0.13417980       0.19316778      -0.82258940      -0.04442069
H        7.16689579      -0.52337016       5.79422138        2      -0.01099348       0.09115186       0.18553093      -0.25331330       0.53084278      -0.08150306
H        3.56769345       0.19128013       4.81695805        3       0.00635050       0.03106409      -0.05661323      -0.45246935      -0.59983289       0.03513600
H        5.89857396       0.12906194       3.45590354        4      -0.13662965       0.06346633       0.07412533      -0.11012651      -0.04154703      -0.10463274
H        5.01440552       0.32414382       7.14335934        5       0.11996958      -0.01313385       0.16304607      -0.17231548      -0.44180438      -0.12289512
H       -1.69404179       0.62953434       9.70230157        6      -0.06773585       0.00953637      -0.07983929      -0.29939729      -0.31745824       0.05525943
H        2.37945907       2.25462946       0.31380998        7      -0.10899681       0.12801581      -0.23887815      -0.36571041      -0.41984591      -0.02494863
H       -1.28062218       1.09681357       2.00394187        8       0.10394094       0.17626290      -0.14567625      -0.56132597      -0.12197629      -0.18949631
H       -8.36548913       3.00985755       8.44664945        9       0.01874449       0.07750776      -0.14054382       0.39231893      -0.31946719      -0.01170108
H       -2.54664931       2.78893574       6.82205308       10       0.03048584       0.25775585      -0.04488709      -0.41237342      -0.20837866       1.19028413
H       -6.74143410       3.80633213       3.57290646       11       0.32050256       0.15943897       0.02898801       0.31104231       0.03236533       0.37733468
H       -3.41360536       1.09458053       3.05616293       12       0.34318410      -0.23802485       0.07743272      -0.50853962       0.08234632       0.33156067
H       -6.59466933       1.88031607       7.31880481       13       0.01536705       0.03548292       0.08656145      -0.08189648      -0.12137295       0.20796426
H       -1.92963184       2.16013653       8.81427827       14       0.12531093      -0.02323637      -0.06973023       0.40313628      -0.12264632      -0.32056481
H       -7.86690874       3.29972356       1.71696131       15      -0.08477292      -0.03159840       0.12293862      -0.01434012      -0.41004431      -0.77136511
H       -0.90235503       0.77646742       4.33988643       16      -0.08686011      -0.05814802       0.28342550       0.40912679       0.11714897       0.19912097
H        1.57326848       2.69585857       6.02312950       17       0.00715137      -0.12380872      -0.16254808      -0.29899186      -0.23123094       0.25480562
H       -0.61632287       1.91476309       6.12879314       18      -0.08876028       0.01924329      -0.05101227       0.36619526      -0.32495469       0.18464825
H        0.76835884      -0.91704693       4.28843424       19      -0.15605130       0.01894772       0.06988647      -0.03237634       0.22900340       0.08527865
H        6.70609322       1.62092020       0.91686461       20       0.01929231      -0.19191463       0.26163555       0.76997304       0.63578093      -0.47934842
H       -5.82009078       2.01052704       9.75507010       21       0.30326570       0.03656602       0.14022317      -0.00922834      -0.03740962      -0.50983787
H        5.81093412      -1.87039273       9.61285222       22       0.20657588       0.20659809      -0.02039162       0.37428081      -0.52969074       0.33497953
H       -5.59543449       3.24736131       1.04015511       23      -0.04224115      -0.11354957       0.21265902       0.13948861      -0.29076833      -0.10893944
H        0.42784603       0.48710590       2.10176740       24       0.30049793      -0.13611010      -0.00468402      -0.59484619       0.09816582      -0.19184998
H       -0.53518861      -1.77813116       8.52127415       25       0.00655531       0.08690819       0.10595504       0.65831566      -0.06782719      -0.13440409
H       -2.96285666       2.59157644       5.13270576       26      -0.25300676       0.03340918       0.06572293       0.52107400       0.35914874       0.31286937
H       -6.55716736       3.24215834       5.23786859       27      -0.16752543      -0.02805275      -0.10766369       0.03741252      -0.88641006       0.79594296
H       -5.03685280       1.93128228       3.36334310       28      -0.15021169       0.12582558      -0.10191877       0.62859154      -0.83863443      -0.54655361
H       -4.85344607       1.77016486       7.27072605       29      -0.06649187       0.16884070       0.01181296       1.25072956       0.88673592      -0.39224604
H       -0.86175594       4.56432672       0.03964643       30       0.17846396      -0.19144294      -0.07943183      -0.39176086      -0.36752370      -0.55813378
H        2.38301367       1.54051139      10.51636405       31      -0.19060844       0.01911267       0.25222963       0.14690968      -0.16933602       0.11266012
C       -0.17581895       1.46226535       3.84974164       32      -0.18515647      -0.57459519      -0.22058225       0.27883172      -0.44003537       0.08531761
C        0.22192600      -1.12504879       6.58997347       33      -0.07512328      -0.46550149       0.08488214      -0.55275685      -0.80494785       0.23250395
C       -0.84336859       2.87265025       5.66245298       34       0.04319845       0.29158538      -0.23378192       1.13017929       0.50398958      -0.24388561
C        1.43229075      -0.18392811       4.79404745       35      -0.39846597      -0.16641831      -0.07506726      -1.39263332       0.15176895      -0.49471065
C        6.06713489       0.93900034       1.43224267       36      -0.39497116      -0.32073245      -0.80955195      -1.35843945      -1.50483489      -0.67591703
C       -5.58329451       1.10380716       9.15771830       37      -0.36193220      -0.01752132       0.07000806      -0.01275975       0.62095106      -0.17375553
C       -3.52181740       1.89477508      10.09402553       38       0.16177538      -0.52863247       0.28467056       0.13258123       0.16549753      -2.07575321
C        4.51640584       2.52102928       0.51005712       39       0.36138331      -0.43527671       0.58505039       0.14678860       0.12095730       0.07939292
C       -0.28405293       1.30051715       2.35611376       40       0.19195160      -0.55821573       0.03644867       1.44870114       0.72396976      -0.52214849
C        0.37449208      -1.27541847       8.11748205       41       0.14753494       0.49373627      -0.46888110      -1.73077798       1.54831624      -0.36517000
C       -2.30636824       3.14844780       5.85186587       42      -0.25949138       1.26103909      -0.54787233      -0.30482915      -0.37169668      -1.63763463
C        2.84200268      -0.65064888       4.64737900       43       0.56034525      -0.10141687      -0.32885522       0.85266727       1.99937487      -1.91110706
C        6.24443652       1.02088161       2.92126916       44       0.40080582      -0.06552329       0.31202140       0.30223945       0.54350352       0.34550261
C       -5.72072981       1.29321542       7.63361805       45      -0.11247026      -0.13664558       1.05760873      -1.14459503      -0.53769994       0.96596086
C       -2.05012739       1.65516314       9.77267023       46      -0.47453599       0.69520773      -0.54057451       0.62453324       1.48064971       1.00712574
C        3.08351632       3.00246313       0.64822751       47      -0.01605096       0.11556200       0.01381028       0.20967451       0.51371592       0.80870652
O       -0.35411231       2.78763683       4.26978768       48       0.22350733       0.25056258       0.25663341      -1.10039783       0.01685432       0.20637988
O        1.06167984      -0.11984225       6.16496940       49      -0.16821849      -0.55392439      -0.45958737       0.11151990       0.85498822       0.49101430
O       -1.21357943      -0.78977938       6.25156088       50      -0.33543385      -0.44277474      -0.25066843       0.73390549      -0.39541662       0.41342169
O        1.20697421       1.13024275       4.19342497       51       0.17004627       0.12777087       0.14454290       0.59316111      -1.04898417       0.70126581
O       -3.31489247       4.29053999       0.93958223       52      -0.41183560      -0.17658529       0.40053882      -0.10513974       0.93135190       2.17608929
O        4.33821577       0.06296654       9.62059752       53       0.35992281       0.45633144       0.21462747       0.43338183       0.52332252      -1.13898182
O       -4.17202258       0.83010248       9.41381797       54       0.02043450       0.24051387      -0.02777880      -0.78840059      -0.43916082       0.27765521
O        4.70668947       1.20000077       0.96656717       55       0.53785601      -0.22599735      -0.23686579      -0.20128065       0.02995309       1.29980803
56
Lattice="10.7619164 0.0 0.0 -9.665296305262016 4.732958053065482 0.0 -0.5483100463354086 -2.3664790220718444 10.484177494289693" Properties=species:S:1:pos:R:3:spacegroup_kinds:I:1:momenta:R:3:forces:R:3 spacegroup="P 1" unit_cell=conventional occupancy="_JSON {\"0\": {\"H\": 1}, \"1\": {\"H\": 1}, \"2\": {\"H\": 1}, \"3\": {\"H\": 1}, \"4\": {\"H\": 1}, \"5\": {\"H\": 1}, \"6\": {\"H\": 1}, \"7\": {\"H\": 1}, \"8\": {\"H\": 1}, \"9\": {\"H\": 1}, \"10\": {\"H\": 1}, \"11\": {\"H\": 1}, \"12\": {\"H\": 1}, \"13\": {\"H\": 1}, \"14\": {\"H\": 1}, \"15\": {\"H\": 1}, \"16\": {\"H\": 1}, \"17\": {\"H\": 1}, \"18\": {\"H\": 1}, \"19\": {\"H\": 1}, \"20\": {\"H\": 1}, \"21\": {\"H\": 1}, \"22\": {\"H\": 1}, \"23\": {\"H\": 1}, \"24\": {\"H\": 1}, \"25\": {\"H\": 1}, \"26\": {\"H\": 1}, \"27\": {\"H\": 1}, \"28\": {\"H\": 1}, \"29\": {\"H\": 1}, \"30\": {\"H\": 1}, \"31\": {\"H\": 1}, \"32\": {\"C\": 1}, \"33\": {\"C\": 1}, \"34\": {\"C\": 1}, \"35\": {\"C\": 1}, \"36\": {\"C\": 1}, \"37\": {\"C\": 1}, \"38\": {\"C\": 1}, \"39\": {\"C\": 1}, \"40\": {\"C\": 1}, \"41\": {\"C\": 1}, \"42\": {\"C\": 1}, \"43\": {\"C\": 1}, \"44\": {\"C\": 1}, \"45\": {\"C\": 1}, \"46\": {\"C\": 1}, \"47\": {\"C\": 1}, \"48\": {\"O\": 1}, \"49\": {\"O\": 1}, \"50\": {\"O\": 1}, \"51\": {\"O\": 1}, \"52\": {\"O\": 1}, \"53\": {\"O\": 1}, \"54\": {\"O\": 1}, \"55\": {\"O\": 1}}" energy=-313.85382080078125 free_energy=-313.85382080078125 stress="0.013761469163000584 -0.004879379644989967 -0.005674256011843681 -0.004879379644989967 0.006163871381431818 0.00547605799511075 -0.005674256011843681 0.00547605799511075 -0.0018128423253074288" pbc="T T T"
H        0.15152029       2.21865819       1.86996608        0       0.18670821      -0.17536431       0.06887277      -0.25462753      -0.83075190       0.05804629
H        0.10920523      -0.19334271       8.62244505        1      -0.00897887       0.26460750      -0.03107016       0.20135868      -1.45994043      -1.01799273
H        7.15516444      -0.39883624       5.76710617        2       0.22383286       0.15936992      -0.34067689       0.18644580       0.19727892      -0.26340419
H        3.55287388       0.14212060       5.10648279        3      -0.16824449      -0.25377477       0.22539347      -0.53553480      -0.32390678      -0.69896764
H        5.71904797       0.28007967       3.48878615        4      -0.14175085       0.06957666       0.07981230      -0.42629373      -0.45673698       0.12704878
H        5.07217449       0.33732690       7.23278698        5      -0.02221057       0.07819981       0.03358507       0.14585048      -0.33883435      -0.34743777
H       -1.86337467       0.61454907       9.70908645        6       0.00209976      -0.06951318       0.02682897       0.35397470       0.27211958       0.03441950
H        2.40409165       2.23500123       0.27412507        7      -0.05904437      -0.08227786      -0.03197336       0.20295061       0.43273515      -0.32657516
H       -1.27779544       1.10993535       2.00836775        8      -0.09536109      -0.13044327       0.02708161      -0.83863831       0.04003268      -0.43664569
H       -8.33962581       3.21420922       8.35225621        9       0.17273496       0.29406299      -0.08361808       0.23365214       0.22766255      -0.09218713
H       -2.54133525       3.01261332       6.85842850       10       0.10491067       0.07367796       0.12018046      -0.11240928      -0.33224303       0.81576514
H       -6.39093384       3.84895167       3.60576987       11       0.14443694       0.00657610      -0.00789918      -0.26306465       0.31059259      -0.29989526
H       -3.37778199       0.94136173       3.24468011       12       0.01522328      -0.07500943       0.19342101      -1.33400655      -0.10755602      -0.76893431
H       -6.68609534       1.78694173       7.51153394       13      -0.08667912      -0.27258663      -0.01170166      -0.20095499      -0.13165013      -0.15521675
H       -1.76453241       2.05976715       8.70170591       14       0.02189822      -0.10309623       0.09738917      -0.31269458       0.19350147       0.31044000
H       -7.95445999       3.02340530       1.79564975       15      -0.04973570      -0.11226857       0.02076824       0.41189489       0.38057789      -1.18562162
H       -0.80018672       0.77039117       4.49092959       16       0.00831354      -0.06072608      -0.00660573       0.00097013       0.17438695      -0.99411488
H        1.44500770       2.50713095       6.17382284       17       0.01225018      -0.28997436      -0.01209801       0.24866387       1.14403367       0.13491343
H       -0.56090755       1.92546780       6.04306249       18       0.00912427       0.02953069      -0.02228982      -0.35387045      -0.16754872       0.13082813
H        0.67939895      -0.89355047       4.27079637       19       0.07644970      -0.05095115      -0.04691326       0.30057558      -0.10529579      -0.07734970
H        6.74714454       1.49845928       0.85340922       20      -0.11245930      -0.08927526      -0.22056980       0.51640010       1.18711531      -0.49470529
H       -5.80988200       2.10952440       9.71365884       21      -0.20491591       0.06817281      -0.10894741       0.02467437      -0.34780350      -0.22419551
H        5.87596101      -1.83571103       9.70363746       22      -0.16165005       0.07076732       0.03590505      -0.15178853      -0.88951659      -0.00086544
H       -5.50015884       3.11440187       1.13784144       23       0.11933224       0.03126473      -0.00442074      -0.11864689       0.35621297      -0.32354674
H        0.36855209       0.33657762       1.99417353       24      -0.04607082      -0.23447384      -0.15432092      -1.04204273       1.71019340       0.43702152
H       -0.32413897      -2.00709539       8.53026263       25       0.20338992      -0.17844372      -0.18322088       0.05246830       0.67889196      -0.27905330
H       -3.08714234       2.74677631       5.19721871       26      -0.01915411       0.07455488      -0.09249836       0.58998185       0.03474119       0.12558231
H       -6.69673472       3.25872588       5.21696373       27      -0.09696512      -0.06688929      -0.04755620       0.17544231      -1.07494056       0.50442976
H       -4.83143355       2.04721359       3.16449860       28       0.33766933       0.12941328       0.00705008       0.39477962      -1.34767771      -0.01897323
H       -4.93754009       1.99042853       7.37634371       29       0.05869092       0.23203809       0.01089276      -0.29874074      -0.47476697      -0.05642267
H       -0.81005383       4.51876367       0.00822825       30      -0.20155796       0.23295180      -0.03457242      -0.26692331      -0.02007120      -0.48483133
H        2.48120425       1.62674268      10.66760480       31       0.30393415      -0.01816118       0.05312299      -0.25146705      -0.60053051       0.38425559
C       -0.17497678       1.41202891       3.81608589       32       0.11041248      -0.26316041      -0.10980149       0.95673025       0.41550216       1.33579659
C        0.16861397      -1.18805868       6.60335741       33      -0.76776876       0.02200120       0.67403903      -0.22194104       0.09041373      -0.69300079
C       -0.81165542       2.89924228       5.59186428       34      -0.05282407       0.32732976      -0.63230688      -1.19237602      -0.34071419       0.60169733
C        1.38527140      -0.18167028       4.74198785       35       0.10269857       0.21879151      -0.68694722       0.81694138      -0.55123615      -0.59415418
C        6.06620573       0.86818199       1.37965232       36       0.53230858      -0.54626124       0.08532765      -0.00821543      -0.53996694       1.85033321
C       -5.59710014       1.15461054       9.17270552       37       0.05871200       1.06856384       0.55336509       0.70454454       0.84736514       1.79725254
C       -3.48648167       1.86752584      10.06803998       38       0.30032601       0.37939410      -0.58623195      -0.95997220       1.52576554      -0.53066009