56
Lattice="10.7619164 0.0 0.0 -9.665296305262016 4.732958053065482 0.0 -0.5483100463354086 -2.3664790220718444 10.484177494289693" Properties=species:S:1:pos:R:3:spacegroup_kinds:I:1:forces:R:3 spacegroup="P 1" unit_cell=conventional occupancy="_JSON {\"0\": {\"H\": 1}, \"1\": {\"H\": 1}, \"2\": {\"H\": 1}, \"3\": {\"H\": 1}, \"4\": {\"H\": 1}, \"5\": {\"H\": 1}, \"6\": {\"H\": 1}, \"7\": {\"H\": 1}, \"8\": {\"H\": 1}, \"9\": {\"H\": 1}, \"10\": {\"H\": 1}, \"11\": {\"H\": 1}, \"12\": {\"H\": 1}, \"13\": {\"H\": 1}, \"14\": {\"H\": 1}, \"15\": {\"H\": 1}, \"16\": {\"H\": 1}, \"17\": {\"H\": 1}, \"18\": {\"H\": 1}, \"19\": {\"H\": 1}, \"20\": {\"H\": 1}, \"21\": {\"H\": 1}, \"22\": {\"H\": 1}, \"23\": {\"H\": 1}, \"24\": {\"H\": 1}, \"25\": {\"H\": 1}, \"26\": {\"H\": 1}, \"27\": {\"H\": 1}, \"28\": {\"H\": 1}, \"29\": {\"H\": 1}, \"30\": {\"H\": 1}, \"31\": {\"H\": 1}, \"32\": {\"C\": 1}, \"33\": {\"C\": 1}, \"34\": {\"C\": 1}, \"35\": {\"C\": 1}, \"36\": {\"C\": 1}, \"37\": {\"C\": 1}, \"38\": {\"C\": 1}, \"39\": {\"C\": 1}, \"40\": {\"C\": 1}, \"41\": {\"C\": 1}, \"42\": {\"C\": 1}, \"43\": {\"C\": 1}, \"44\": {\"C\": 1}, \"45\": {\"C\": 1}, \"46\": {\"C\": 1}, \"47\": {\"C\": 1}, \"48\": {\"O\": 1}, \"49\": {\"O\": 1}, \"50\": {\"O\": 1}, \"51\": {\"O\": 1}, \"52\": {\"O\": 1}, \"53\": {\"O\": 1}, \"54\": {\"O\": 1}, \"55\": {\"O\": 1}}" energy=-315.20623779296875 free_energy=-315.20623779296875 stress="0.0015259933425113559 -0.0007349823135882616 -5.780553351542039e-07 -0.0007349823135882616 -0.001476810546591878 5.80120236293169e-08 -5.780553351542039e-07 5.80120236293169e-08 0.0016979774227365851" pbc="T T T"
H       -0.01248427       2.27696696       1.83153339        0       0.07122737       0.02707820       0.05251661
H        0.46428407      -0.32702137       8.65264411        1      -0.05205600       0.05564536      -0.05251561
H        7.11696904      -0.62167877       5.76820574        2       0.06071833       0.02959748      -0.06332520
H        3.54843712       0.20514534       4.71597175        3      -0.04159921       0.05318699       0.06330395
H        5.94175252       0.08951207       3.41055536        4      -0.07122711      -0.02707674      -0.05251791
H        4.91667413       0.32702137       7.07362213        5       0.05205734      -0.05563810       0.05251915
H       -1.73601084       0.62167878       9.95806050        6      -0.06071921      -0.02958663       0.06332392
H        2.38083113       2.16133369       0.52611700        7       0.04159808      -0.05318613      -0.06330114
H       -1.38564785       1.18011340       2.11584331        8       0.00912194       0.09641421       0.00989624
H       -8.45014457       2.81694541       8.36833418        9       0.03391367       0.09078121      -0.00994039
H       -2.58250803       2.70418269       6.85836100       10       0.03144366       0.09145357       0.01228175
H       -6.70499477       3.65935988       3.62581649       11       0.01202231       0.09588283      -0.01239151
H       -3.44700030       1.18636563       3.12624543       12      -0.00912169      -0.09641379      -0.00989531
H       -6.59610993       1.91601265       7.35793206       13      -0.03391649      -0.09078133       0.00994120
H       -1.70183007       2.02877537       8.86790524       14      -0.03144007      -0.09144853      -0.01229310
H       -7.79294969       3.44007720       1.61627226       15      -0.01202444      -0.09588411       0.01239041
H       -0.77544238       0.72057867       4.36236141       16      -0.05580219      -0.06497568       0.06553161
H        1.56164860       2.67260202       6.12181608       17       0.02151174      -0.08285711      -0.06550485
H       -0.46393564       1.89516633       6.16016720       18       0.04679149      -0.08891384       0.03981843
H        0.70181139      -0.86845994       4.32401029       19      -0.08095931      -0.05914075      -0.03975132
H        6.70471062       1.64590036       0.87972733       20       0.05580565       0.06498118      -0.06553409
H       -5.84598670       2.06035604       9.60445016       21      -0.02151366       0.08285360       0.06550378
H        5.84489385      -1.89516633       9.56609904       22      -0.04679290       0.08891500      -0.03981572
H       -5.53445954       3.23493897       0.91807845       23       0.08095784       0.05914063       0.03974705
H        0.25131050       0.51347389       1.94957474       24      -0.00851125      -0.01871604      -0.03717728
H       -0.54820374      -1.79480395       8.53460275       25      -0.00033015      -0.02044829       0.03709363
H       -2.80766320       2.46899490       5.11315433       26      -0.04083849      -0.01125184       0.00405123
H       -6.60619587       3.34910738       5.37102316       27       0.03167325      -0.02802466      -0.00411359
H       -5.08395866       1.85300514       3.29251401       28       0.00851502       0.01871212       0.03717740
H       -4.83275446       1.79480396       7.19166349       29       0.00034754       0.02045741      -0.03709874
H       -0.92836486       4.63044218       0.12893441       30       0.04083276       0.01124342      -0.00406405
H        2.32185777       1.38385068      10.35524308       31      -0.03167636       0.02802785       0.00411051
C       -0.12835063       1.44534837       3.84841655       32      -0.01445552       0.09213127      -0.08206615
C        0.20260826      -1.12485611       6.63576095       33       0.05361615       0.07627240       0.08205721
C       -0.77226604       2.84130358       5.69336968       34      -0.06051266       0.10293026       0.03487872
C        1.39483372      -0.15433229       4.79080781       35       0.09947464       0.06571181      -0.03489264
C        6.05761888       0.92113066       1.39367220       36       0.01444738      -0.09213889       0.08206946
C       -5.58356646       1.12485611       9.09050530       37      -0.05360214      -0.07626452      -0.08206081
C       -3.51207206       1.89165448      10.03289656       38       0.06052428      -0.10293378      -0.03488906
C        4.53443453       2.52081132       0.45128094       39      -0.09947228      -0.06571978       0.03490250
C       -0.32593927       1.35886302       2.34265801       40      -0.02487643      -0.04884160       0.03836678
C        0.34202778      -1.28942579       8.14151949       41       0.00090442      -0.05509222      -0.03821172
C       -2.26824862       3.05565688       5.86632716       42       0.02524446      -0.06073755       0.01393194
C        2.83264719      -0.61974062       4.61785033       43      -0.04931958      -0.04330879      -0.01374382
C        6.25520752       1.00761601       2.89943074       44       0.02487099       0.04884356      -0.03836684
C       -5.72298598       1.28942580       7.58474676       45      -0.00092316       0.05507550       0.03821262
C       -2.01608948       1.67730118       9.85993908       46      -0.02525361       0.06073166      -0.01389986
C        3.09662106       2.98621965       0.62423841       47       0.04932702       0.04330578       0.01374431
O       -0.42625656       2.75924355       4.28180099       48       0.00567051      -0.06416629       0.01081669
O        1.04798334      -0.07585512       6.20237650       49      -0.03317386      -0.05508588      -0.01086310
O       -1.17294689      -0.80803189       6.28015861       50      -0.00324894      -0.06212841      -0.01994158
O        1.24638404       1.12493657       4.20401888       51      -0.02462158      -0.05716388       0.01989329
O       -3.30977150       4.34019353       0.96028775       52      -0.00567095       0.06416580      -0.01082122
O        4.33297486       0.07585512       9.52388974       53       0.03316887       0.05508654       0.01086733
O       -4.20801131       0.80803190       9.44610763       54       0.00324776       0.06213056       0.01994677
O        4.68288421       1.24154246       1.03806987       55       0.02462460       0.05716902      -0.01989753
