32
Lattice="6.17176593 0.0 0.0 0.0 8.01859859 0.0 0.0 0.0 13.03281824" Properties=species:S:1:pos:R:3:spacegroup_kinds:I:1:forces:R:3 spacegroup="P 1" unit_cell=conventional occupancy="_JSON {\"0\": {\"Li\": 1}, \"1\": {\"Li\": 1}, \"2\": {\"Li\": 1}, \"3\": {\"Li\": 1}, \"4\": {\"Li\": 1}, \"5\": {\"Li\": 1}, \"6\": {\"Li\": 1}, \"7\": {\"Li\": 1}, \"8\": {\"Li\": 1}, \"9\": {\"Li\": 1}, \"10\": {\"Li\": 1}, \"11\": {\"Li\": 1}, \"12\": {\"P\": 1}, \"13\": {\"P\": 1}, \"14\": {\"P\": 1}, \"15\": {\"P\": 1}, \"16\": {\"S\": 1}, \"17\": {\"S\": 1}, \"18\": {\"S\": 1}, \"19\": {\"S\": 1}, \"20\": {\"S\": 1}, \"21\": {\"S\": 1}, \"22\": {\"S\": 1}, \"23\": {\"S\": 1}, \"24\": {\"S\": 1}, \"25\": {\"S\": 1}, \"26\": {\"S\": 1}, \"27\": {\"S\": 1}, \"28\": {\"S\": 1}, \"29\": {\"S\": 1}, \"30\": {\"S\": 1}, \"31\": {\"S\": 1}}" energy=-140.3463134765625 free_energy=-140.3463134765625 stress="-0.0028886152431368828 8.199431356104014e-09 6.151251508157429e-09 8.199431356104014e-09 -0.004072250798344612 -3.1322051619042668e-09 6.151251508157429e-09 -3.1322051619042668e-09 -0.0025936015881597996" pbc="T T T"
Li       2.40166815       0.26892247       4.33377962        0      -0.01548969       0.00236035       0.00063565
Li       3.77009794       7.74967597       8.69903846        1       0.01548835      -0.00235798      -0.00063372
Li       5.48755103       7.74967604       2.18262938        2      -0.01549340      -0.00236037      -0.00063195
Li       0.68421481       0.26892251      10.85018870        3       0.01548992       0.00235992       0.00063269
Li       3.77009786       4.27822188       8.69903840        4       0.01548861       0.00235898      -0.00063395
Li       2.40166817       3.74037679       4.33377958        5      -0.01548921      -0.00235952       0.00063386
Li       0.68421479       3.74037682      10.85018873        6       0.01549087      -0.00236003       0.00063194
Li       5.48755103       4.27822185       2.18262938        7      -0.01549202       0.00236001      -0.00063098
Li       3.08588289      -0.00000015       0.00000011        8       0.00000032       0.00000047      -0.00000007
Li       0.00000002      -0.00000003       6.51640917        9       0.00000101       0.00000111      -0.00000125
Li       3.08588293       4.00929942       0.00000006       10      -0.00000221      -0.00000114       0.00000144
Li      -0.00000003       4.00929931       6.51640927       11       0.00000083      -0.00000188      -0.00000057
P        0.93932958       2.00464929       1.16793468       12      -0.00067034       0.00001647       0.03303286
P        5.23243628       6.01394887      11.86488422       13       0.00067270       0.00000053      -0.03306041
P        4.02521222       6.01394893       5.34847526       14      -0.00064963      -0.00000050      -0.03306352
P        2.14655384       2.00464967       7.68434322       15       0.00065470       0.00000083       0.03305386
S        5.07612358       2.00464963       1.30682515       16       0.00280122       0.00000026       0.01274854
S        1.09564239       6.01394890      11.72599300       17      -0.00280917      -0.00000121      -0.01274682
S        1.99024098       6.01394896       5.20958389       18       0.00279154      -0.00000005      -0.01274469
S        4.18152506       2.00464965       7.82323419       19      -0.00279224       0.00000101       0.01274703
S        1.68772173       2.00464970      12.25093563       20       0.03396964      -0.00000125       0.02525127
S        4.48404415       6.01394885       0.78188252       21      -0.03397319       0.00000074      -0.02523579
S        4.77360472       6.01394892       7.29829159       22       0.03397202       0.00000068      -0.02523720
S        1.39816134       2.00464969       5.73452695       23      -0.03397375      -0.00000031       0.02523992
S        1.68016698       0.28147992       2.00960385       24       0.02273793      -0.00260089      -0.01691706
S        4.49159896       7.73711927      11.02321413       25      -0.02272896       0.00258526       0.01692441
S        4.76604989       7.73711922       4.50680502       26       0.02272862       0.00258101       0.01692842
S        1.40571579       0.28147956       8.52601311       27      -0.02272765      -0.00258480      -0.01692740
S        4.49159898       4.29077887      11.02321422       28      -0.02272964      -0.00258696       0.01692484
S        1.68016714       3.72781968       2.00960394       29       0.02273125       0.00258575      -0.01692201
S        1.40571581       3.72781970       8.52601311       30      -0.02272745       0.00258498      -0.01692786
S        4.76604996       4.29077869       4.50680507       31       0.02272874      -0.00258137       0.01692857
