56
Lattice="10.7619164 0.0 0.0 -9.665296305262016 4.732958053065482 0.0 -0.5483100463354086 -2.3664790220718444 10.484177494289693" Properties=species:S:1:pos:R:3:spacegroup_kinds:I:1:forces:R:3 spacegroup="P 1" unit_cell=conventional occupancy="_JSON {\"0\": {\"H\": 1}, \"1\": {\"H\": 1}, \"2\": {\"H\": 1}, \"3\": {\"H\": 1}, \"4\": {\"H\": 1}, \"5\": {\"H\": 1}, \"6\": {\"H\": 1}, \"7\": {\"H\": 1}, \"8\": {\"H\": 1}, \"9\": {\"H\": 1}, \"10\": {\"H\": 1}, \"11\": {\"H\": 1}, \"12\": {\"H\": 1}, \"13\": {\"H\": 1}, \"14\": {\"H\": 1}, \"15\": {\"H\": 1}, \"16\": {\"H\": 1}, \"17\": {\"H\": 1}, \"18\": {\"H\": 1}, \"19\": {\"H\": 1}, \"20\": {\"H\": 1}, \"21\": {\"H\": 1}, \"22\": {\"H\": 1}, \"23\": {\"H\": 1}, \"24\": {\"H\": 1}, \"25\": {\"H\": 1}, \"26\": {\"H\": 1}, \"27\": {\"H\": 1}, \"28\": {\"H\": 1}, \"29\": {\"H\": 1}, \"30\": {\"H\": 1}, \"31\": {\"H\": 1}, \"32\": {\"C\": 1}, \"33\": {\"C\": 1}, \"34\": {\"C\": 1}, \"35\": {\"C\": 1}, \"36\": {\"C\": 1}, \"37\": {\"C\": 1}, \"38\": {\"C\": 1}, \"39\": {\"C\": 1}, \"40\": {\"C\": 1}, \"41\": {\"C\": 1}, \"42\": {\"C\": 1}, \"43\": {\"C\": 1}, \"44\": {\"C\": 1}, \"45\": {\"C\": 1}, \"46\": {\"C\": 1}, \"47\": {\"C\": 1}, \"48\": {\"O\": 1}, \"49\": {\"O\": 1}, \"50\": {\"O\": 1}, \"51\": {\"O\": 1}, \"52\": {\"O\": 1}, \"53\": {\"O\": 1}, \"54\": {\"O\": 1}, \"55\": {\"O\": 1}}" energy=-315.21038818359375 free_energy=-315.21038818359375 stress="0.0014446171699091792 -0.0005629236693494022 9.28080723383573e-08 -0.0005629236693494022 -0.0008545598830096424 -6.914564210092067e-08 9.28080723383573e-08 -6.914564210092067e-08 0.0015755938366055489" pbc="T T T"
H       -0.01146673       2.27735378       1.83228363        0       0.05954258      -0.00327666       0.06233809
H        0.46354042      -0.32622645       8.65189389        1      -0.05491752       0.02317684      -0.06235482
H        7.11783643      -0.62125595       5.76730111        2       0.06303588      -0.00415112      -0.05874474
H        3.54784285       0.20590515       4.71687608        3      -0.05845463       0.02398689       0.05874132
H        5.94073499       0.08912525       3.40980511        4      -0.05953925       0.00327703      -0.06233597
H        4.91741781       0.32622655       7.07437241        5       0.05491431      -0.02316821       0.06236469
H       -1.73687825       0.62125612       9.95896514        6      -0.06303772       0.00415810       0.05874470
H        2.38142538       2.16057389       0.52521269        7       0.05845538      -0.02398793      -0.05874251
H       -1.38551754       1.18149074       2.11598468        8      -0.01113755       0.08955125       0.00594861
H       -8.44966009       2.81824229       8.36819218        9       0.04931308       0.07553657      -0.00592639
H       -2.58205883       2.70548917       6.85853646       10       0.02489168       0.08117932       0.03102902
H       -6.70482302       3.66072964       3.62563948       11       0.01337855       0.08383636      -0.03101417
H       -3.44713062       1.18498829       3.12610407       12       0.01115939      -0.08955091      -0.00594433
H       -6.59659445       1.91471578       7.35807408       13      -0.04930640      -0.07554560       0.00593420
H       -1.70227922       2.02746897       8.86772963       14      -0.02490151      -0.08118881      -0.03099489
H       -7.79312146       3.43870742       1.61644925       15      -0.01337456      -0.08383910       0.03100576
H       -0.77623956       0.71965044       4.36329759       16      -0.01323422      -0.01213644       0.02308648
H        1.56195590       2.67141835       6.12088029       17       0.00653411      -0.01672833      -0.02309706
H       -0.46326720       1.89389614       6.16073603       18       0.01919682      -0.01968156       0.01018692
H        0.70065483      -0.86930481       4.32344241       19      -0.02583037      -0.00920648      -0.01018524
H        6.70550785       1.64682867       0.87879113       20       0.01323260       0.01213465      -0.02308441
H       -5.84629403       2.06153966       9.60538593       21      -0.00653616       0.01672611       0.02309442
H        5.84422538      -1.89389611       9.56553024       22      -0.01919020       0.01966942      -0.01017749
H       -5.53330301       3.23578383       0.91864627       23       0.02584090       0.00921585       0.01018934
H        0.25118892       0.51320652       1.94904363       24      -0.01400569      -0.01703824      -0.02868814
H       -0.54820846      -1.79509607       8.53513266       25       0.00518297      -0.02145693       0.02868128
H       -2.80824660       2.46883415       5.11321220       26      -0.03240776      -0.01272144       0.00990956
H       -6.60574339       3.34870704       5.37096440       27       0.02347664      -0.02566464      -0.00992700
H       -5.08383701       1.85327247       3.29304511       28       0.01400388       0.01703861       0.02868895
H       -4.83274950       1.79509621       7.19113351       29      -0.00520897       0.02144499      -0.02866510
H       -0.92778153       4.63060280       0.12887635       30       0.03240973       0.01272165      -0.00991077
H        2.32140525       1.38425108      10.35530181       31      -0.02347630       0.02567182       0.00991875
C       -0.12855714       1.44666454       3.84724416       32      -0.06474442      -0.02297601       0.02710995
C        0.20337421      -1.12376648       6.63693320       33       0.04808416      -0.04911517      -0.02706048
C       -0.77313051       2.84277400       5.69386795       34       0.01803374      -0.04222372       0.05795771
C        1.39625480      -0.15339355       4.79030934       35      -0.03474358      -0.02991071      -0.05791878
C        6.05782526       0.91981440       1.39484460       36       0.06475965       0.02297451      -0.02710584
C       -5.58433221       1.12376663       9.08933301       37      -0.04808956       0.04911441       0.02707776
C       -3.51120741       1.89018400      10.03239814       38      -0.01806855       0.04223051      -0.05796537
C        4.53301350       2.51987246       0.45177954       39       0.03474620       0.02992442       0.05791078
C       -0.32629464       1.35816528       2.34320612       40       0.01374733       0.00373657      -0.01267622
C        0.34204071      -1.29021281       8.14097362       41      -0.01071829       0.00946942       0.01263735
C       -2.26788799       3.05478921       5.86652617       42      -0.01084416       0.00948887      -0.01263995
C        2.83194262      -0.62035933       4.61765400       43       0.01386499       0.00375804       0.01261338
C        6.25556282       1.00831376       2.89888264       44      -0.01376843      -0.00373848       0.01266547
C       -5.72299918       1.29021260       7.58529265       45       0.01074430      -0.00945073      -0.01267768
C       -2.01645028       1.67816876       9.85974052       46       0.01086709      -0.00949085       0.01260856
C        3.09732573       2.98683832       0.62443475       47      -0.01388451      -0.00375971      -0.01259628
O       -0.42617555       2.75832689       4.28195553       48      -0.00160980      -0.01560019      -0.00606853
O        1.04750941      -0.07664207       6.20222131       49      -0.00535125      -0.01474383       0.00606395
O       -1.17299330      -0.80891944       6.27987373       50      -0.00940084      -0.01381543      -0.00193498
O        1.24603231       1.12411994       4.20430307       51       0.00225635      -0.01656941       0.00193552
O       -3.30985251       4.34111019       0.96013316       52       0.00160870       0.01560208       0.00605926
O        4.33344871       0.07664206       9.52404499       53       0.00535023       0.01474175      -0.00606682
O       -4.20796491       0.80891948       9.44639258       54       0.00941742       0.01382452       0.00193529
O        4.68323599       1.24235915       1.03778561       55      -0.00226701       0.01654580      -0.00193244
