4
Lattice="3.128588 0.0 0.0 -1.5642939988088433 2.709436998432005 0.0 0.0 0.0 5.016955" Properties=species:S:1:pos:R:3:spacegroup_kinds:I:1:momenta:R:3:forces:R:3 spacegroup="P 1" unit_cell=conventional occupancy="_JSON {\"0\": {\"Al\": 1}, \"1\": {\"Al\": 1}, \"2\": {\"N\": 1}, \"3\": {\"N\": 1}}" energy=-29.623743057250977 free_energy=-29.623743057250977 stress="0.004300239495933056 -0.00867287628352642 0.0028820508159697056 -0.00867287628352642 -0.006943793967366219 -0.00443434901535511 0.0028820508159697056 -0.00443434901535511 -0.014838962815701962" pbc="T T T"
Al       1.54321205       0.89379626       2.53645986        0      -0.00705393      -0.41529097       0.79444797      -0.25250444       0.39302647      -0.87834418
Al       0.03580897       1.79893955       4.98957803        1       0.09337922      -0.29525124      -0.61191768      -0.16600911       0.14057800       0.62745404
N        1.59619766       0.90645093       4.40111849        2      -0.02189808       1.09350651       0.27120852      -0.08899951      -0.09593384       0.34911597
N       -0.05911265       1.83464207       1.91219265        3      -0.06442720      -0.38296428      -0.45373875       0.50751317      -0.43767059      -0.09822608
