4
Lattice="3.128588 0.0 0.0 -1.5642939988088433 2.709436998432005 0.0 0.0 0.0 5.016955" Properties=species:S:1:pos:R:3:spacegroup_kinds:I:1:momenta:R:3:forces:R:3 spacegroup="P 1" unit_cell=conventional occupancy="_JSON {\"0\": {\"Al\": 1}, \"1\": {\"Al\": 1}, \"2\": {\"N\": 1}, \"3\": {\"N\": 1}}" energy=-29.673717498779297 free_energy=-29.673717498779297 stress="-0.0022252683993428946 -1.4779950561205624e-06 1.3847171409508974e-08 -1.4779950561205624e-06 -0.0022274504881352186 -2.6352203974511212e-08 1.3847171409508974e-08 -2.6352203974511212e-08 -0.0054536680690944195" pbc="T T T"
Al       1.56429556       0.90314476       2.50490041        0       0.68448204       0.53670047       0.91071479      -0.00003496       0.00002069       0.00553168
Al      -0.00000156       1.80629224       5.01337791        1       0.31075784       0.39520501      -1.87833745       0.00003638      -0.00002070       0.00552432
N        1.56429556       0.90314476       4.41849749        2      -0.23293981      -0.79739853      -0.40745139      -0.00003824       0.00002111      -0.00553054
N       -0.00000156       1.80629224       1.91001999        3      -0.76230006      -0.13450696       1.37507406       0.00003686      -0.00002118      -0.00552552
4
Lattice="3.128588 0.0 0.0 -1.5642939988088433 2.709436998432005 0.0 0.0 0.0 5.016955" Properties=species:S:1:pos:R:3:spacegroup_kinds:I:1:momenta:R:3:forces:R:3 spacegroup="P 1" unit_cell=conventional occupancy="_JSON {\"0\": {\"Al\": 1}, \"1\": {\"Al\": 1}, \"2\": {\"N\": 1}, \"3\": {\"N\": 1}}" energy=-29.433595657348633 free_energy=-29.433595657348633 stress="-0.013773579150438309 -0.016446417197585106 0.012948735617101192 -0.016446417197585106 -0.023968784138560295 0.009969727136194706 0.012948735617101192 0.009969727136194706 -0.012059314176440239" pbc="T T T"
Al       1.60246141       0.92231283       2.54150849        0       0.57498219      -0.13491992       1.02882488      -1.31301367      -0.49033496      -0.87831378
Al       0.00328788       1.81111139       4.94718774        1      -0.44725819       0.00118051      -1.07867326      -0.30154142      -0.59423196       1.18011904
N        1.53678588       0.85870780       4.38099595        2       0.14052047      -0.46066718       0.20203878       0.28490782       0.67984468       1.25553548
N       -0.05228246       1.80432671       2.00436659        3      -0.26824451       0.59440666      -0.15219039       1.32964730       0.40472236      -1.55734086
4
Lattice="3.128588 0.0 0.0 -1.5642939988088433 2.709436998432005 0.0 0.0 0.0 5.016955" Properties=species:S:1:pos:R:3:spacegroup_kinds:I:1:momenta:R:3:forces:R:3 spacegroup="P 1" unit_cell=conventional occupancy="_JSON {\"0\": {\"Al\": 1}, \"1\": {\"Al\": 1}, \"2\": {\"N\": 1}, \"3\": {\"N\": 1}}" energy=-29.5672550201416 free_energy=-29.5672550201416 stress="0.012915863655507565 0.0017025022534653544 0.0035793548449873924 0.0017025022534653544 -0.025856997817754745 -0.00536912027746439 0.0035793548449873924 -0.00536912027746439 -0.011435260064899921" pbc="T T T"
Al       1.59598186       0.90138485       2.55101266        0      -0.85003993      -0.64755168      -0.41676276      -0.33522794       0.74370408      -1.26921296
Al      -0.01311800       1.79082858       4.96769657        1      -0.24557031      -0.74327784       1.65595766      -0.18280259      -0.17026757       1.21499717
N        1.52960410       0.86779351       4.41996342        2       0.16413076       0.60763571       0.63654569       0.31887710       0.39321381      -0.09056938
N       -0.00060095       1.87475190       1.90756519        3       0.93147952       0.78319388      -1.87574055       0.19915348      -0.96665025       0.14478523
4
Lattice="3.128588 0.0 0.0 -1.5642939988088433 2.709436998432005 0.0 0.0 0.0 5.016955" Properties=species:S:1:pos:R:3:spacegroup_kinds:I:1:momenta:R:3:forces:R:3 spacegroup="P 1" unit_cell=conventional occupancy="_JSON {\"0\": {\"Al\": 1}, \"1\": {\"Al\": 1}, \"2\": {\"N\": 1}, \"3\": {\"N\": 1}}" energy=-29.40627098083496 free_energy=-29.40627098083496 stress="0.010688843205571175 0.016498293727636337 -0.00816405937075615 0.016498293727636337 -0.009423193521797657 -0.01555400900542736 -0.00816405937075615 -0.01555400900542736 -0.06125422939658165" pbc="T T T"
Al       1.53423928       0.87298461       2.51007454        0      -1.60925410       0.09619217      -1.03262344       0.74608934       1.00298595       0.03482432
Al      -0.01349003       1.78470222       5.05709164        1       0.21561284      -0.04339787       1.72443349       0.02271192       0.40732995      -1.66436899
N        1.55208973       0.92225131       4.42203509        2       0.38659357       0.63935801      -0.93002928       0.04495843      -0.39009756      -0.56986165
N        0.09667398       1.88681818       1.81230437        3       1.00704771      -0.69215228       0.23821934      -0.81375968      -1.02021837       2.19940662
4
Lattice="3.128588 0.0 0.0 -1.5642939988088433 2.709436998432005 0.0 0.0 0.0 5.016955" Properties=species:S:1:pos:R:3:spacegroup_kinds:I:1:momenta:R:3:forces:R:3 spacegroup="P 1" unit_cell=conventional occupancy="_JSON {\"0\": {\"Al\": 1}, \"1\": {\"Al\": 1}, \"2\": {\"N\": 1}, \"3\": {\"N\": 1}}" energy=-29.201906204223633 free_energy=-29.201906204223633 stress="-0.026440924033522606 0.03815549612045288 -0.03138265013694763 0.03815549612045288 -0.0048772795125842094 0.001543774618767202 -0.03138265013694763 0.001543774618767202 -0.05181969329714775" pbc="T T T"
Al       1.49382401       0.87740193       2.48150488        0      -0.08661661      -0.02748805       0.25595504       2.48428249      -0.46186849       1.22611833
Al      -0.02076734       1.79337851       5.08843297        1       0.00716751       0.60209022      -1.27068237       0.64723110       0.57433438      -2.36004210
N        1.60157219       0.96971685       4.33361320        2       0.49437274       0.53651074      -0.17473367      -0.53882331      -0.70145273       1.74609053
N        0.13924907       1.81421454       1.89535166        3      -0.41492365      -1.11111286       1.18946108      -2.59269047       0.58898687      -0.61216748
4
Lattice="3.128588 0.0 0.0 -1.5642939988088433 2.709436998432005 0.0 0.0 0.0 5.016955" Properties=species:S:1:pos:R:3:spacegroup_kinds:I:1:momenta:R:3:forces:R:3 spacegroup="P 1" unit_cell=conventional occupancy="_JSON {\"0\": {\"Al\": 1}, \"1\": {\"Al\": 1}, \"2\": {\"N\": 1}, \"3\": {\"N\": 1}}" energy=-29.574626922607422 free_energy=-29.574626922607422 stress="-0.023618090897798538 -0.014321192167699337 -0.011127915233373642 -0.014321192167699337 0.01503000594675541 -0.0028545912355184555 -0.011127915233373642 -0.0028545912355184555 -0.014440403319895267" pbc="T T T"
Al       1.53421960       0.88369269       2.53780581        0       1.55944041       0.36820838       1.55971024       0.29264349      -0.24000490      -0.91367805
Al      -0.00048005       1.82107762       4.98837345        1       1.01688486       0.86374266      -2.47525462       0.94369400       0.52251589       0.78486502
N        1.63583966       0.96584654       4.40663185        2      -0.31021807      -0.52489260       1.27117397      -1.15103710      -0.78907216       0.05687826
N       -0.01177521       1.75252284       1.90648730        3      -2.26610719      -0.70705841      -0.35562958      -0.08530063       0.50656116       0.07193469
4
Lattice="3.128588 0.0 0.0 -1.5642939988088433 2.709436998432005 0.0 0.0 0.0 5.016955" Properties=species:S:1:pos:R:3:spacegroup_kinds:I:1:momenta:R:3:forces:R:3 spacegroup="P 1" unit_cell=conventional occupancy="_JSON {\"0\": {\"Al\": 1}, \"1\": {\"Al\": 1}, \"2\": {\"N\": 1}, \"3\": {\"N\": 1}}" energy=-29.3720703125 free_energy=-29.3720703125 stress="-0.005629449151456356 -0.0187196247279644 0.015849407762289047 -0.0187196247279644 -0.03227262571454048 0.017212195321917534 0.015849407762289047 0.017212195321917534 -0.007298300974071026" pbc="T T T"
Al       1.57072834       0.88046441       2.56331976        0      -0.00039203      -0.37629476      -0.57844024      -1.34386504      -0.44065788      -1.50707603
Al       0.05055069       1.86456079       4.94968571        1       0.52726971       0.77034238       1.04960165      -0.49128783      -1.36433971       1.82584620
N        1.58204807       0.88176663       4.44992391        2      -0.27832212      -1.02263470      -0.55459335       0.15003449       1.16376269      -0.85894835
N       -0.12661087       1.75915459       1.88869866        3      -0.24855558       0.62858712       0.08343190       1.68511796       0.64123464       0.54017806
4
Lattice="3.128588 0.0 0.0 -1.5642939988088433 2.709436998432005 0.0 0.0 0.0 5.016955" Properties=species:S:1:pos:R:3:spacegroup_kinds:I:1:momenta:R:3:forces:R:3 spacegroup="P 1" unit_cell=conventional occupancy="_JSON {\"0\": {\"Al\": 1}, \"1\": {\"Al\": 1}, \"2\": {\"N\": 1}, \"3\": {\"N\": 1}}" energy=-29.596923828125 free_energy=-29.596923828125 stress="0.01597636751830578 -0.004506189841777086 0.0060186078771948814 -0.004506189841777086 -0.025499284267425537 -0.004597092512995005 0.0060186078771948814 -0.004597092512995005 -0.010013952851295471" pbc="T T T"
Al       1.53284807       0.86390067       2.51395080        0      -1.59464518      -0.16469609      -1.74991311      -0.27820593       0.89915812      -0.15420558
Al       0.06317839       1.83227868       5.00948379        1       0.38440024      -1.80666554       1.59449933      -0.58708280      -0.41271764       0.16725162
N        1.58572483       0.89623782       4.41422573        2       0.14193108       1.12964906      -0.09119182       0.25703922       0.38076782       0.00228047
N       -0.08152107       1.83862420       1.90381444        3       1.06831383       0.84171264       0.24660547       0.60824955      -0.86720830      -0.01532654
4
Lattice="3.128588 0.0 0.0 -1.5642939988088433 2.709436998432005 0.0 0.0 0.0 5.016955" Properties=species:S:1:pos:R:3:spacegroup_kinds:I:1:momenta:R:3:forces:R:3 spacegroup="P 1" unit_cell=conventional occupancy="_JSON {\"0\": {\"Al\": 1}, \"1\": {\"Al\": 1}, \"2\": {\"N\": 1}, \"3\": {\"N\": 1}}" energy=-29.462553024291992 free_energy=-29.462553024291992 stress="-0.005697197746485472 0.010849474929273129 -0.003906536381691694 0.010849474929273129 -0.019133901223540306 -0.01270324271172285 -0.003906536381691694 -0.01270324271172285 -0.011871268972754478" pbc="T T T"
Al       1.48347331       0.88264396       2.44527933        0      -0.30454480       1.01149476      -0.60004554       0.88392866       0.95768440       1.70777082
Al       0.06164410       1.77681263       5.07306069        1      -0.86715204      -0.75617426       0.43048916      -0.30080700       0.71655333      -1.72280002
N        1.61717706       0.94947181       4.40498425        2       0.38645755       0.04830140       0.18623310      -0.07233852      -0.67486024       0.48910597
N       -0.01486929       1.85626146       1.92266699        3       0.78523928      -0.30362187      -0.01667681      -0.51078331      -0.99937761      -0.47407681
4
Lattice="3.128588 0.0 0.0 -1.5642939988088433 2.709436998432005 0.0 0.0 0.0 5.016955" Properties=species:S:1:pos:R:3:spacegroup_kinds:I:1:momenta:R:3:forces:R:3 spacegroup="P 1" unit_cell=conventional occupancy="_JSON {\"0\": {\"Al\": 1}, \"1\": {\"Al\": 1}, \"2\": {\"N\": 1}, \"3\": {\"N\": 1}}" energy=-29.518749237060547 free_energy=-29.518749237060547 stress="-0.023370686918497086 0.006539764814078808 -0.016098110005259514 0.006539764814078808 0.00669770035892725 -0.0004823512863367796 -0.016098110005259514 -0.0004823512863367796 -0.022161463275551796" pbc="T T T"
Al       1.50607640       0.94974318       2.46463696        0       1.15921326       0.62635158       1.50689819       1.24247456      -0.60704595       1.15697455
Al       0.01335470       1.75088041       5.06242874        1      -0.91112090       0.14825201      -0.88962576       0.51474291       0.69610548      -1.43088984
N        1.62637951       0.90489622       4.42127857        2      -0.14223462      -0.64064988       0.21498398      -0.71771604      -0.51824117      -0.07984763
N        0.02538012       1.82158367       1.88963026        3      -0.10585776      -0.13395367      -0.83225647      -1.03950167       0.42918158       0.35376310
4
Lattice="3.128588 0.0 0.0 -1.5642939988088433 2.709436998432005 0.0 0.0 0.0 5.016955" Properties=species:S:1:pos:R:3:spacegroup_kinds:I:1:momenta:R:3:forces:R:3 spacegroup="P 1" unit_cell=conventional occupancy="_JSON {\"0\": {\"Al\": 1}, \"1\": {\"Al\": 1}, \"2\": {\"N\": 1}, \"3\": {\"N\": 1}}" energy=-29.605009078979492 free_energy=-29.605009078979492 stress="0.0015965760685503483 -0.006785888224840164 -0.00309519050642848 -0.006785888224840164 0.001781010185368359 0.001724572037346661 -0.00309519050642848 0.001724572037346661 -0.023115593940019608" pbc="T T T"
Al       1.56693927       0.93861027       2.54470905        0       1.44875332      -0.98943837       1.48437352      -0.01659433      -0.29131174      -1.20300281
Al      -0.01304573       1.78057346       4.99752454        1       0.01689713       1.11024955      -1.70729964       0.38438797       0.02358444       0.50760806
N        1.58384203       0.87104976       4.42155576        2      -0.67927381      -0.02704917      -0.19037174      -0.39236799       0.15177631      -0.39793307
N        0.00122215       1.81989283       1.85992054        3      -0.78637667      -0.09376195       0.41329785       0.02457431       0.11595094       1.09332752
4
Lattice="3.128588 0.0 0.0 -1.5642939988088433 2.709436998432005 0.0 0.0 0.0 5.016955" Properties=species:S:1:pos:R:3:spacegroup_kinds:I:1:momenta:R:3:forces:R:3 spacegroup="P 1" unit_cell=conventional occupancy="_JSON {\"0\": {\"Al\": 1}, \"1\": {\"Al\": 1}, \"2\": {\"N\": 1}, \"3\": {\"N\": 1}}" energy=-29.470205307006836 free_energy=-29.470205307006836 stress="0.003203153610229492 -0.017801444977521896 0.011838321574032307 -0.017801444977521896 -0.0413491316139698 0.007359962910413742 0.011838321574032307 0.007359962910413742 -0.005160261876881123" pbc="T T T"
Al       1.62755630       0.89950076       2.54516750        0       1.04970772      -0.99981833      -0.80202773      -1.41065049       0.15933302      -0.91778779
Al      -0.00757062       1.81703574       4.95606287        1      -0.03757938       0.11959916      -0.16512845      -0.26242661      -0.84351516       1.41445780
N        1.52756237       0.85151206       4.42065481        2      -0.42752191       0.29022992      -0.07965797       0.31765860       0.98894626      -0.00115424
N       -0.06966665       1.84442115       1.93994535        3      -0.58460645       0.58998929       1.04681416       1.35541856      -0.30476409      -0.49551532
4
Lattice="3.128588 0.0 0.0 -1.5642939988088433 2.709436998432005 0.0 0.0 0.0 5.016955" Properties=species:S:1:pos:R:3:spacegroup_kinds:I:1:momenta:R:3:forces:R:3 spacegroup="P 1" unit_cell=conventional occupancy="_JSON {\"0\": {\"Al\": 1}, \"1\": {\"Al\": 1}, \"2\": {\"N\": 1}, \"3\": {\"N\": 1}}" energy=-29.45298957824707 free_energy=-29.45298957824707 stress="-0.013225013390183449 -0.02375020831823349 0.007911435328423977 -0.02375020831823349 -0.04793166369199753 -0.007333165034651756 0.007911435328423977 -0.007333165034651756 0.028632769361138344" pbc="T T T"
Al       1.63184041       0.85684029       2.46693552        0      -0.97589093      -0.55899517      -1.34838327      -1.39010644       1.11026132       1.17303419
Al      -0.02377744       1.82170285       4.98999598        1      -0.28018700       0.45883533       1.28013441      -0.08532368       0.08283225       0.34697434
N        1.52792697       0.92957747       4.44479004        2       0.11446391       0.97873213       0.08012616       0.22035912      -0.17398638       0.05598676
N       -0.04718872       1.83921500       2.00086007        3       1.14161405      -0.87857223      -0.01187722       1.25507081      -1.01910758      -1.57599473
4
Lattice="3.128588 0.0 0.0 -1.5642939988088433 2.709436998432005 0.0 0.0 0.0 5.016955" Properties=species:S:1:pos:R:3:spacegroup_kinds:I:1:momenta:R:3:forces:R:3 spacegroup="P 1" unit_cell=conventional occupancy="_JSON {\"0\": {\"Al\": 1}, \"1\": {\"Al\": 1}, \"2\": {\"N\": 1}, \"3\": {\"N\": 1}}" energy=-29.53631591796875 free_energy=-29.53631591796875 stress="-0.019857892766594887 0.013828893192112446 -0.0057174148969352245 0.013828893192112446 -0.00316445785574615 -0.0016707355389371514 -0.0057174148969352245 -0.0016707355389371514 -0.006260163616389036" pbc="T T T"
Al       1.56291506       0.86348347       2.43836898        0      -1.44558890       0.38889058       0.34074882       0.67285913       0.11609118       1.45909405
Al      -0.01834138       1.83613139       5.05736565        1       0.19731531      -0.00921596       1.04742103       0.06595302       0.15003355      -1.19267547
N        1.54726691       0.95741146       4.47045644        2      -0.01023985       0.05685085       0.14844072       0.09761347      -0.44420451      -0.65174437
N        0.05576966       1.77068664       1.90062730        3       1.25851348      -0.43652546      -1.53661049      -0.83642542       0.17808005       0.38532573
4
Lattice="3.128588 0.0 0.0 -1.5642939988088433 2.709436998432005 0.0 0.0 0.0 5.016955" Properties=species:S:1:pos:R:3:spacegroup_kinds:I:1:momenta:R:3:forces:R:3 spacegroup="P 1" unit_cell=conventional occupancy="_JSON {\"0\": {\"Al\": 1}, \"1\": {\"Al\": 1}, \"2\": {\"N\": 1}, \"3\": {\"N\": 1}}" energy=-29.531002044677734 free_energy=-29.531002044677734 stress="-0.01829439215362072 0.015707403421401978 -0.011607893742620945 0.015707403421401978 0.0031475145369768143 0.0046056173741817474 -0.011607893742620945 0.0046056173741817474 -0.017258718609809875" pbc="T T T"
Al       1.54701071       0.87273543       2.46070913        0       0.71855707      -0.11584392       0.49435318       1.07476616      -0.28505638       1.06925237
Al      -0.01761626       1.84389394       5.05391117        1       0.19346324       0.17720390      -0.69190078       0.23187485      -0.07941519      -1.16825008
N        1.56395353       0.94331127       4.45961406        2       0.32487550      -0.12409389      -0.51346170      -0.11546869      -0.20503646      -0.72920489
N        0.06831353       1.75176769       1.87546341        3      -1.23689580       0.06273395       0.71100940      -1.19117236       0.56950819       0.82820308
4
Lattice="3.128588 0.0 0.0 -1.5642939988088433 2.709436998432005 0.0 0.0 0.0 5.016955" Properties=species:S:1:pos:R:3:spacegroup_kinds:I:1:momenta:R:3:forces:R:3 spacegroup="P 1" unit_cell=conventional occupancy="_JSON {\"0\": {\"Al\": 1}, \"1\": {\"Al\": 1}, \"2\": {\"N\": 1}, \"3\": {\"N\": 1}}" energy=-29.61321258544922 free_energy=-29.61321258544922 stress="-0.008381661958992481 -0.004276604391634464 0.005492815747857094 -0.004276604391634464 -0.013937256298959255 0.0014803794911131263 0.005492815747857094 0.0014803794911131263 0.012475431896746159" pbc="T T T"
Al       1.57767907       0.87033377       2.48321562        0       0.42146001      -0.10085932       0.75449426      -0.50598520       0.14215556       0.64867562
Al       0.00878680       1.84488740       5.00616580        1       0.94842493       0.04829693      -0.67234570      -0.28191051      -0.37569761       0.05942947
N        1.54733745       0.91884316       4.41695262        2      -0.50233557      -0.06173895      -0.86681735       0.26756805       0.16352589       0.34766680
N       -0.02491944       1.77881444       1.96659666        3      -0.86754935       0.11430138       0.78466884       0.52032775       0.07001624      -1.05577183
4
Lattice="3.128588 0.0 0.0 -1.5642939988088433 2.709436998432005 0.0 0.0 0.0 5.016955" Properties=species:S:1:pos:R:3:spacegroup_kinds:I:1:momenta:R:3:forces:R:3 spacegroup="P 1" unit_cell=conventional occupancy="_JSON {\"0\": {\"Al\": 1}, \"1\": {\"Al\": 1}, \"2\": {\"N\": 1}, \"3\": {\"N\": 1}}" energy=-29.557838439941406 free_energy=-29.557838439941406 stress="-0.016363639384508133 -0.002947521163150668 0.0129037881270051 -0.002947521163150668 -0.0062077585607767105 0.0015375317307189107 0.0129037881270051 0.0015375317307189107 -0.002714776434004307" pbc="T T T"
Al       1.59068816       0.88023431       2.52274584        0      -0.41625585       0.17887034       0.33160772      -0.90884614      -0.14031243      -0.36867833
Al       0.01872291       1.83477380       4.97781997        1       0.14974039      -0.20763022      -0.17578451      -0.72829998      -0.10046253       0.72652727
N        1.52039175       0.92489995       4.39464372        2       0.19754281       0.25939867       0.47781739       0.72476113      -0.09604982       0.71573973
N       -0.04216872       1.77342024       1.96745697        3       0.06897269      -0.23063873      -0.63364055       0.91238487       0.33682480      -1.07358861
4
Lattice="3.128588 0.0 0.0 -1.5642939988088433 2.709436998432005 0.0 0.0 0.0 5.016955" Properties=species:S:1:pos:R:3:spacegroup_kinds:I:1:momenta:R:3:forces:R:3 spacegroup="P 1" unit_cell=conventional occupancy="_JSON {\"0\": {\"Al\": 1}, \"1\": {\"Al\": 1}, \"2\": {\"N\": 1}, \"3\": {\"N\": 1}}" energy=-29.621112823486328 free_energy=-29.621112823486328 stress="-0.02150077559053898 0.0052763931453228 -0.0032674160320311785 0.0052763931453228 0.010657688602805138 0.0019249649485573173 -0.0032674160320311785 0.0019249649485573173 -0.0015899102436378598" pbc="T T T"
Al       1.54767650       0.89587762       2.50832859        0      -0.85810061       0.46896478      -1.00002983       0.39160499      -0.39029217      -0.15032902
Al       0.00665805       1.82067517       5.00342499        1      -0.72966904      -0.11082686       1.46536690      -0.00949945       0.22696826       0.34863240
N        1.57185926       0.94293297       4.45440721        2       0.62349793      -0.37686487       0.64593251      -0.01969792      -0.43335092      -0.83890116
N        0.01256031       1.75229423       1.88600530        3       0.96427171       0.01872703      -1.11126955      -0.36240762       0.59667474       0.64059776
4
Lattice="3.128588 0.0 0.0 -1.5642939988088433 2.709436998432005 0.0 0.0 0.0 5.016955" Properties=species:S:1:pos:R:3:spacegroup_kinds:I:1:momenta:R:3:forces:R:3 spacegroup="P 1" unit_cell=conventional occupancy="_JSON {\"0\": {\"Al\": 1}, \"1\": {\"Al\": 1}, \"2\": {\"N\": 1}, \"3\": {\"N\": 1}}" energy=-29.520854949951172 free_energy=-29.520854949951172 stress="-0.014047402888536453 0.011820896528661251 -0.014255518093705177 0.011820896528661251 -0.005614806432276964 0.009361587464809418 -0.014255518093705177 0.009361587464809418 -0.01957099512219429" pbc="T T T"
Al       1.52999425       0.91403916       2.46474575        0       0.09545068      -0.23101237      -1.18071299       1.21875393      -0.63577396       0.99290138
Al      -0.00890651       1.82180733       5.05208964        1       0.31216879      -0.10747515       0.45537575       0.39472413      -0.38378713      -1.12710416
N        1.59437706       0.88605558       4.45928988        2      -0.04798974      -0.53350273      -0.20523304      -0.40810183       0.35579240      -0.79021639
N        0.05384455       1.77207221       1.87144999        3      -0.35962975       0.87199031       0.93057034      -1.20537639       0.66376883       0.92441928
4
Lattice="3.128588 0.0 0.0 -1.5642939988088433 2.709436998432005 0.0 0.0 0.0 5.016955" Properties=species:S:1:pos:R:3:spacegroup_kinds:I:1:momenta:R:3:forces:R:3 spacegroup="P 1" unit_cell=conventional occupancy="_JSON {\"0\": {\"Al\": 1}, \"1\": {\"Al\": 1}, \"2\": {\"N\": 1}, \"3\": {\"N\": 1}}" energy=-29.618785858154297 free_energy=-29.618785858154297 stress="0.010117865167558193 -0.0018220545025542378 -0.0018730370793491602 -0.0018220545025542378 -0.024783236905932426 0.0045912121422588825 -0.0018730370793491602 0.0045912121422588825 2.6556808734312654e-05" pbc="T T T"
Al       1.53818030       0.90928018       2.47247637        0       0.23228605      -0.27447261       1.41733342       0.21201324       0.18702567       0.85529745
Al       0.01802691       1.81430743       5.03506509        1       0.60360754      -0.42930211      -1.11140771       0.03760251      -0.69444299      -0.55142331
N        1.59518017       0.85128050       4.42414646        2       0.09084702       0.02420638      -0.77345505      -0.19470295       0.84070659       0.01228540
N       -0.01452980       1.83034438       1.92467362        3      -0.92674062       0.67956840       0.46752944      -0.05491282      -0.33328941      -0.31615975
4
Lattice="3.128588 0.0 0.0 -1.5642939988088433 2.709436998432005 0.0 0.0 0.0 5.016955" Properties=species:S:1:pos:R:3:spacegroup_kinds:I:1:momenta:R:3:forces:R:3 spacegroup="P 1" unit_cell=conventional occupancy="_JSON {\"0\": {\"Al\": 1}, \"1\": {\"Al\": 1}, \"2\": {\"N\": 1}, \"3\": {\"N\": 1}}" energy=-29.623743057250977 free_energy=-29.623743057250977 stress="0.004300239495933056 -0.00867287628352642 0.0028820508159697056 -0.00867287628352642 -0.006943793967366219 -0.00443434901535511 0.0028820508159697056 -0.00443434901535511 -0.014838962815701962" pbc="T T T"
Al       1.54321205       0.89379626       2.53645986        0      -0.00705393      -0.41529097       0.79444797      -0.25250444       0.39302647      -0.87834418
Al       0.03580897       1.79893955       4.98957803        1       0.09337922      -0.29525124      -0.61191768      -0.16600911       0.14057800       0.62745404
N        1.59619766       0.90645093       4.40111849        2      -0.02189808       1.09350651       0.27120852      -0.08899951      -0.09593384       0.34911597
N       -0.05911265       1.83464207       1.91219265        3      -0.06442720      -0.38296428      -0.45373875       0.50751317      -0.43767059      -0.09822608
