4
Lattice="3.128588 0.0 0.0 -1.5642939988088433 2.709436998432005 0.0 0.0 0.0 5.016955" Properties=species:S:1:pos:R:3:spacegroup_kinds:I:1:forces:R:3 spacegroup="P 1" unit_cell=conventional occupancy="_JSON {\"0\": {\"Al\": 1}, \"1\": {\"Al\": 1}, \"2\": {\"N\": 1}, \"3\": {\"N\": 1}}" energy=-29.673717498779297 free_energy=-29.673717498779297 stress="-0.0022252683993428946 -1.4779950561205624e-06 1.3847171409508974e-08 -1.4779950561205624e-06 -0.0022274504881352186 -2.6352203974511212e-08 1.3847171409508974e-08 -2.6352203974511212e-08 -0.0054536680690944195" pbc="T T T"
Al       1.56429556       0.90314476       2.50490041        0      -0.00003496       0.00002069       0.00553168
Al      -0.00000156       1.80629224       5.01337791        1       0.00003638      -0.00002070       0.00552432
N        1.56429556       0.90314476       4.41849749        2      -0.00003824       0.00002111      -0.00553054
N       -0.00000156       1.80629224       1.91001999        3       0.00003686      -0.00002118      -0.00552552
