13
Lattice="7.26870274 0.0 0.0 3.634351370000001 6.294881225397555 0.0 3.634351370000001 2.0982937417991856 5.934870934989993" Properties=species:S:1:pos:R:3:spacegroup_kinds:I:1:forces:R:3 spacegroup="P 1" unit_cell=conventional occupancy="_JSON {\"0\": {\"Li\": 1}, \"1\": {\"Li\": 1}, \"2\": {\"Li\": 1}, \"3\": {\"Li\": 1}, \"4\": {\"Li\": 1}, \"5\": {\"Li\": 1}, \"6\": {\"P\": 1}, \"7\": {\"S\": 1}, \"8\": {\"S\": 1}, \"9\": {\"S\": 1}, \"10\": {\"S\": 1}, \"11\": {\"S\": 1}, \"12\": {\"Cl\": 1}}" energy=-53.3634147644043 free_energy=-53.3634147644043 stress="-0.0007941904477775097 -2.376162342443422e-07 -1.4997195307842048e-07 -2.376162342443422e-07 -0.0007939283968880773 -1.1418860168532774e-07 -1.4997195307842048e-07 -1.1418860168532774e-07 -0.0007939027855172753" pbc="T T T"
Li       9.25387995       7.24703237       3.10460814        0       0.00422627      -0.00243472       0.00344835
Li      12.55222827       5.34273008       5.79769826        1      -0.00421163       0.00243334      -0.00344178
Li       9.25387995       5.34273008       5.79769826        2       0.00422534       0.00243890      -0.00344714
Li      12.55222827       7.24703237       3.10460814        3      -0.00421146      -0.00243048       0.00344052
Li      10.90305411       4.39057894       3.10460814        4       0.00000257       0.00487613       0.00344844
Li      10.90305411       8.19918351       5.79769826        5       0.00000215      -0.00486355      -0.00344136
P        7.26870274       4.19658748       2.96743547        6       0.00008551       0.00004572       0.00003558
S        7.26870637       6.13578650       2.28182731        7      -0.00001805      -0.01090917       0.00384752
S        8.94810016       3.22699113       2.28182731        8      -0.00945859       0.00544038       0.00384752
S        5.58931258       3.22699113       2.28182731        9       0.00937773       0.00541267       0.00383030
S        7.26870637       4.19658958       5.02426588       10      -0.00001928      -0.00000984      -0.01156914
S       10.90305411       6.29488123       4.45115320       11      -0.00000214      -0.00000067      -0.00000029
Cl       0.00000000       0.00000000       0.00000000       12       0.00000163       0.00000135       0.00000151
