4
Lattice="3.128588 0.0 0.0 -1.5642939988088433 2.709436998432005 0.0 0.0 0.0 5.016955" Properties=species:S:1:pos:R:3:spacegroup_kinds:I:1:momenta:R:3:forces:R:3 spacegroup="P 1" unit_cell=conventional occupancy="_JSON {\"0\": {\"Al\": 1}, \"1\": {\"Al\": 1}, \"2\": {\"N\": 1}, \"3\": {\"N\": 1}}" energy=-29.623743057250977 free_energy=-29.623743057250977 stress="0.0043004718609154224 -0.008672581985592842 0.002882078755646944 -0.008672581985592842 -0.006943534594029188 -0.004434481263160706 0.002882078755646944 -0.004434481263160706 -0.014839217998087406" pbc="T T T"
Al       1.54321207       0.89379622       2.53645985        0      -0.00705409      -0.41529166       0.79444799      -0.25250196       0.39302909      -0.87834460
Al       0.03580898       1.79893952       4.98957808        1       0.09337931      -0.29525068      -0.61191859      -0.16601317       0.14058140       0.62745070
N        1.59619755       0.90645096       4.40111844        2      -0.02189839       1.09350612       0.27120812      -0.08899646      -0.09593789       0.34911248
N       -0.05911263       1.83464208       1.91219255        3      -0.06442686      -0.38296382      -0.45373755       0.50751138      -0.43767244      -0.09821904
