4
Lattice="3.128588 0.0 0.0 -1.5642939988088433 2.709436998432005 0.0 0.0 0.0 5.016955" Properties=species:S:1:pos:R:3:spacegroup_kinds:I:1:momenta:R:3:forces:R:3 spacegroup="P 1" unit_cell=conventional occupancy="_JSON {\"0\": {\"Al\": 1}, \"1\": {\"Al\": 1}, \"2\": {\"N\": 1}, \"3\": {\"N\": 1}}" energy=-29.673717498779297 free_energy=-29.673717498779297 stress="-0.0022254858631640673 -1.3347458889256814e-06 -7.357596754076212e-09 -1.3347458889256814e-06 -0.002227452117949724 -2.676621413399971e-08 -7.357596754076212e-09 -2.676621413399971e-08 -0.005453644320368767" pbc="T T T"
Al       1.56429556       0.90314476       2.50490041        0       0.68448204       0.53670047       0.91071479      -0.00003436       0.00001972       0.00553188
Al      -0.00000156       1.80629224       5.01337791        1       0.31075784       0.39520501      -1.87833745       0.00003363      -0.00001914       0.00552508
N        1.56429556       0.90314476       4.41849749        2      -0.23293981      -0.79739853      -0.40745139      -0.00003540       0.00002001      -0.00553046
N       -0.00000156       1.80629224       1.91001999        3      -0.76230006      -0.13450696       1.37507406       0.00003602      -0.00002052      -0.00552618
4
Lattice="3.128588 0.0 0.0 -1.5642939988088433 2.709436998432005 0.0 0.0 0.0 5.016955" Properties=species:S:1:pos:R:3:spacegroup_kinds:I:1:momenta:R:3:forces:R:3 spacegroup="P 1" unit_cell=conventional occupancy="_JSON {\"0\": {\"Al\": 1}, \"1\": {\"Al\": 1}, \"2\": {\"N\": 1}, \"3\": {\"N\": 1}}" energy=-29.43359375 free_energy=-29.43359375 stress="-0.013773512095212936 -0.016446426510810852 0.01294881571084261 -0.016446426510810852 -0.02396884560585022 0.00996975228190422 0.01294881571084261 0.00996975228190422 -0.01205950416624546" pbc="T T T"
Al       1.60246141       0.92231284       2.54150849        0       0.57498209      -0.13491994       1.02882495      -1.31301355      -0.49033469      -0.87831384
Al       0.00328788       1.81111140       4.94718774        1      -0.44725820       0.00118056      -1.07867322      -0.30154097      -0.59423316       1.18011785
N        1.53678588       0.85870779       4.38099594        2       0.14052048      -0.46066724       0.20203855       0.28490692       0.67984557       1.25553632
N       -0.05228245       1.80432671       2.00436659        3      -0.26824438       0.59440668      -0.15219031       1.32964730       0.40472218      -1.55734050
4
Lattice="3.128588 0.0 0.0 -1.5642939988088433 2.709436998432005 0.0 0.0 0.0 5.016955" Properties=species:S:1:pos:R:3:spacegroup_kinds:I:1:momenta:R:3:forces:R:3 spacegroup="P 1" unit_cell=conventional occupancy="_JSON {\"0\": {\"Al\": 1}, \"1\": {\"Al\": 1}, \"2\": {\"N\": 1}, \"3\": {\"N\": 1}}" energy=-29.5672550201416 free_energy=-29.5672550201416 stress="0.012915810570120811 0.0017024672124534845 0.003579401643946767 0.0017024672124534845 -0.02585710398852825 -0.005369169171899557 0.003579401643946767 -0.005369169171899557 -0.01143531035631895" pbc="T T T"
Al       1.59598186       0.90138485       2.55101264        0      -0.85003970      -0.64755173      -0.41676295      -0.33522791       0.74370486      -1.26921248
Al      -0.01311801       1.79082859       4.96769659        1      -0.24557055      -0.74327801       1.65595809      -0.18280154      -0.17026851       1.21499538
N        1.52960410       0.86779350       4.41996339        2       0.16413094       0.60763589       0.63654549       0.31887603       0.39321411      -0.09056826
N       -0.00060096       1.87475190       1.90756520        3       0.93147928       0.78319390      -1.87574062       0.19915348      -0.96665055       0.14478511
4
Lattice="3.128588 0.0 0.0 -1.5642939988088433 2.709436998432005 0.0 0.0 0.0 5.016955" Properties=species:S:1:pos:R:3:spacegroup_kinds:I:1:momenta:R:3:forces:R:3 spacegroup="P 1" unit_cell=conventional occupancy="_JSON {\"0\": {\"Al\": 1}, \"1\": {\"Al\": 1}, \"2\": {\"N\": 1}, \"3\": {\"N\": 1}}" energy=-29.406272888183594 free_energy=-29.406272888183594 stress="0.010689090006053448 0.016498146578669548 -0.00816406961530447 0.016498146578669548 -0.00942313764244318 -0.015553947538137436 -0.00816406961530447 -0.015553947538137436 -0.06125398352742195" pbc="T T T"
Al       1.53423929       0.87298460       2.51007453        0      -1.60925368       0.09619212      -1.03262280       0.74608833       1.00298500       0.03482374
Al      -0.01349005       1.78470223       5.05709166        1       0.21561260      -0.04339763       1.72443266       0.02271528       0.40732703      -1.66436946
N        1.55208976       0.92225131       4.42203507        2       0.38659363       0.63935790      -0.93002898       0.04495510      -0.39009434      -0.56986046
N        0.09667396       1.88681818       1.81230435        3       1.00704744      -0.69215238       0.23821915      -0.81375861      -1.02021790       2.19940615
4
Lattice="3.128588 0.0 0.0 -1.5642939988088433 2.709436998432005 0.0 0.0 0.0 5.016955" Properties=species:S:1:pos:R:3:spacegroup_kinds:I:1:momenta:R:3:forces:R:3 spacegroup="P 1" unit_cell=conventional occupancy="_JSON {\"0\": {\"Al\": 1}, \"1\": {\"Al\": 1}, \"2\": {\"N\": 1}, \"3\": {\"N\": 1}}" energy=-29.201906204223633 free_energy=-29.201906204223633 stress="-0.026440991088747978 0.03815567493438721 -0.031382448971271515 0.03815567493438721 -0.004877597559243441 0.0015437118709087372 -0.031382448971271515 0.0015437118709087372 -0.05181983485817909" pbc="T T T"
Al       1.49382402       0.87740193       2.48150490        0      -0.08661683      -0.02748780       0.25595540       2.48428178      -0.46186882       1.22611499
Al      -0.02076736       1.79337853       5.08843293        1       0.00716758       0.60209056      -1.27068357       0.64723152       0.57433254      -2.36003900
N        1.60157221       0.96971683       4.33361323        2       0.49437258       0.53651045      -0.17473345      -0.53882331      -0.70145190       1.74608874
N        0.13924906       1.81421452       1.89535165        3      -0.41492328      -1.11111320       1.18946159      -2.59268975       0.58898848      -0.61216509
4
Lattice="3.128588 0.0 0.0 -1.5642939988088433 2.709436998432005 0.0 0.0 0.0 5.016955" Properties=species:S:1:pos:R:3:spacegroup_kinds:I:1:momenta:R:3:forces:R:3 spacegroup="P 1" unit_cell=conventional occupancy="_JSON {\"0\": {\"Al\": 1}, \"1\": {\"Al\": 1}, \"2\": {\"N\": 1}, \"3\": {\"N\": 1}}" energy=-29.57462501525879 free_energy=-29.57462501525879 stress="-0.023618008941411972 -0.01432143896818161 -0.01112806424498558 -0.01432143896818161 0.015030017122626305 -0.0028545758686959743 -0.01112806424498558 -0.0028545758686959743 -0.014440327882766724" pbc="T T T"
Al       1.53421961       0.88369269       2.53780583        0       1.55944050       0.36820864       1.55971006       0.29264343      -0.24000488      -0.91367537
Al      -0.00048006       1.82107765       4.98837338        1       1.01688549       0.86374276      -2.47525427       0.94369495       0.52251279       0.78486156
N        1.63583965       0.96584649       4.40663187        2      -0.31021886      -0.52489269       1.27117347      -1.15103793      -0.78906763       0.05688076
N       -0.01177520       1.75252281       1.90648733        3      -2.26610713      -0.70705875      -0.35562930      -0.08530060       0.50655973       0.07193306
4
Lattice="3.128588 0.0 0.0 -1.5642939988088433 2.709436998432005 0.0 0.0 0.0 5.016955" Properties=species:S:1:pos:R:3:spacegroup_kinds:I:1:momenta:R:3:forces:R:3 spacegroup="P 1" unit_cell=conventional occupancy="_JSON {\"0\": {\"Al\": 1}, \"1\": {\"Al\": 1}, \"2\": {\"N\": 1}, \"3\": {\"N\": 1}}" energy=-29.3720703125 free_energy=-29.3720703125 stress="-0.005629757419228554 -0.018719378858804703 0.01584947109222412 -0.018719378858804703 -0.03227299079298973 0.017212294042110443 0.01584947109222412 0.017212294042110443 -0.007298099342733622" pbc="T T T"
Al       1.57072834       0.88046441       2.56331975        0      -0.00039222      -0.37629534      -0.57844120      -1.34386444      -0.44065863      -1.50707769
Al       0.05055072       1.86456080       4.94968569        1       0.52727013       0.77034120       1.04960279      -0.49128944      -1.36433721       1.82584870
N        1.58204799       0.88176662       4.44992390        2      -0.27832240      -1.02263355      -0.55459314       0.15003657       1.16376126      -0.85894954
N       -0.12661084       1.75915457       1.88869869        3      -0.24855552       0.62858767       0.08343144       1.68511748       0.64123464       0.54017812
4
Lattice="3.128588 0.0 0.0 -1.5642939988088433 2.709436998432005 0.0 0.0 0.0 5.016955" Properties=species:S:1:pos:R:3:spacegroup_kinds:I:1:momenta:R:3:forces:R:3 spacegroup="P 1" unit_cell=conventional occupancy="_JSON {\"0\": {\"Al\": 1}, \"1\": {\"Al\": 1}, \"2\": {\"N\": 1}, \"3\": {\"N\": 1}}" energy=-29.596923828125 free_energy=-29.596923828125 stress="0.015976309776306152 -0.004505801014602184 0.0060186730697751045 -0.004505801014602184 -0.02549937181174755 -0.004597156774252653 0.0060186730697751045 -0.004597156774252653 -0.010013963095843792" pbc="T T T"
Al       1.53284807       0.86390065       2.51395074        0      -1.59464507      -0.16469640      -1.74991327      -0.27820569       0.89915848      -0.15420651
Al       0.06317842       1.83227865       5.00948382        1       0.38440017      -1.80666600       1.59449931      -0.58708513      -0.41271240       0.16725105
N        1.58572476       0.89623788       4.41422575        2       0.14193166       1.12964934      -0.09119128       0.25704259       0.38076311       0.00228141
N       -0.08152107       1.83862422       1.90381444        3       1.06831327       0.84171302       0.24660511       0.60824823      -0.86720908      -0.01532605
4
Lattice="3.128588 0.0 0.0 -1.5642939988088433 2.709436998432005 0.0 0.0 0.0 5.016955" Properties=species:S:1:pos:R:3:spacegroup_kinds:I:1:momenta:R:3:forces:R:3 spacegroup="P 1" unit_cell=conventional occupancy="_JSON {\"0\": {\"Al\": 1}, \"1\": {\"Al\": 1}, \"2\": {\"N\": 1}, \"3\": {\"N\": 1}}" energy=-29.462553024291992 free_energy=-29.462553024291992 stress="-0.00569725688546896 0.01084938831627369 -0.003906567580997944 0.01084938831627369 -0.01913396827876568 -0.01270315982401371 -0.003906567580997944 -0.01270315982401371 -0.011871319264173508" pbc="T T T"
Al       1.48347330       0.88264395       2.44527928        0      -0.30454523       1.01149531      -0.60004519       0.88392913       0.95768380       1.70776987
Al       0.06164410       1.77681260       5.07306072        1      -0.86715274      -0.75617378       0.43048883      -0.30080602       0.71655411      -1.72279763
N        1.61717710       0.94947184       4.40498428        2       0.38645876       0.04830072       0.18623304      -0.07234018      -0.67486060       0.48910564
N       -0.01486933       1.85626146       1.92266698        3       0.78523923      -0.30362230      -0.01667676      -0.51078326      -0.99937743      -0.47407788
4
Lattice="3.128588 0.0 0.0 -1.5642939988088433 2.709436998432005 0.0 0.0 0.0 5.016955" Properties=species:S:1:pos:R:3:spacegroup_kinds:I:1:momenta:R:3:forces:R:3 spacegroup="P 1" unit_cell=conventional occupancy="_JSON {\"0\": {\"Al\": 1}, \"1\": {\"Al\": 1}, \"2\": {\"N\": 1}, \"3\": {\"N\": 1}}" energy=-29.51875114440918 free_energy=-29.51875114440918 stress="-0.023370705544948578 0.006539967842400074 -0.016098281368613243 0.006539967842400074 0.006697341799736023 -0.0004823982308153063 -0.016098281368613243 -0.0004823982308153063 -0.022161250934004784" pbc="T T T"
Al       1.50607636       0.94974319       2.46463695        0       1.15921282       0.62635193       1.50689934       1.24247599      -0.60704583       1.15697479
Al       0.01335470       1.75088041       5.06242873        1      -0.91112026       0.14825262      -0.88962645       0.51474702       0.69610590      -1.43088996
N        1.62637959       0.90489619       4.42127855        2      -0.14223523      -0.64065057       0.21498315      -0.71771902      -0.51824117      -0.07984834
N        0.02538013       1.82158362       1.88963028        3      -0.10585730      -0.13395404      -0.83225609      -1.03950405       0.42918116       0.35376370
4
Lattice="3.128588 0.0 0.0 -1.5642939988088433 2.709436998432005 0.0 0.0 0.0 5.016955" Properties=species:S:1:pos:R:3:spacegroup_kinds:I:1:momenta:R:3:forces:R:3 spacegroup="P 1" unit_cell=conventional occupancy="_JSON {\"0\": {\"Al\": 1}, \"1\": {\"Al\": 1}, \"2\": {\"N\": 1}, \"3\": {\"N\": 1}}" energy=-29.60500717163086 free_energy=-29.60500717163086 stress="0.001595878042280674 -0.006785891018807888 -0.0030954997055232525 -0.006785891018807888 0.0017805745592340827 0.001724298344925046 -0.0030954997055232525 0.001724298344925046 -0.023113751783967018" pbc="T T T"
Al       1.56693924       0.93861029       2.54470909        0       1.44875375      -0.98943844       1.48437368      -0.01659350      -0.29131502      -1.20300555
Al      -0.01304570       1.78057347       4.99752453        1       0.01689804       1.11024936      -1.70729912       0.38438872       0.02358317       0.50760275
N        1.58384203       0.87104970       4.42155568        2      -0.67927478      -0.02704929      -0.19037153      -0.39237064       0.15177792      -0.39792389
N        0.00122214       1.81989279       1.85992054        3      -0.78637701      -0.09376168       0.41329701       0.02457538       0.11595381       1.09332693
4
Lattice="3.128588 0.0 0.0 -1.5642939988088433 2.709436998432005 0.0 0.0 0.0 5.016955" Properties=species:S:1:pos:R:3:spacegroup_kinds:I:1:momenta:R:3:forces:R:3 spacegroup="P 1" unit_cell=conventional occupancy="_JSON {\"0\": {\"Al\": 1}, \"1\": {\"Al\": 1}, \"2\": {\"N\": 1}, \"3\": {\"N\": 1}}" energy=-29.470205307006836 free_energy=-29.470205307006836 stress="0.003203075146302581 -0.017801351845264435 0.011838361620903015 -0.017801351845264435 -0.04134924337267876 0.007359914947301149 0.011838361620903015 0.007359914947301149 -0.005160419270396233" pbc="T T T"
Al       1.62755628       0.89950077       2.54516751        0       1.04970798      -0.99981839      -0.80202933      -1.41065121       0.15933196      -0.91778839
Al      -0.00757058       1.81703572       4.95606287        1      -0.03757970       0.11959849      -0.16512785      -0.26242670      -0.84351498       1.41445756
N        1.52756233       0.85151202       4.42065484        2      -0.42752201       0.29023029      -0.07965672       0.31765908       0.98894632      -0.00115408
N       -0.06966666       1.84442113       1.93994529        3      -0.58460629       0.58998962       1.04681396       1.35541916      -0.30476290      -0.49551457
4
Lattice="3.128588 0.0 0.0 -1.5642939988088433 2.709436998432005 0.0 0.0 0.0 5.016955" Properties=species:S:1:pos:R:3:spacegroup_kinds:I:1:momenta:R:3:forces:R:3 spacegroup="P 1" unit_cell=conventional occupancy="_JSON {\"0\": {\"Al\": 1}, \"1\": {\"Al\": 1}, \"2\": {\"N\": 1}, \"3\": {\"N\": 1}}" energy=-29.45298957824707 free_energy=-29.45298957824707 stress="-0.013224968686699867 -0.02375015616416931 0.007911440916359425 -0.02375015616416931 -0.047931648790836334 -0.00733316782861948 0.007911440916359425 -0.00733316782861948 0.028632909059524536" pbc="T T T"
Al       1.63184040       0.85684030       2.46693547        0      -0.97589081      -0.55899534      -1.34838440      -1.39010608       1.11026013       1.17303574
Al      -0.02377744       1.82170280       4.98999601        1      -0.28018806       0.45883498       1.28013519      -0.08532442       0.08283377       0.34697321
N        1.52792697       0.92957747       4.44479008        2       0.11446478       0.97873225       0.08012550       0.22036028      -0.17398785       0.05598615
N       -0.04718871       1.83921501       2.00086005        3       1.14161401      -0.87857193      -0.01187628       1.25506997      -1.01910627      -1.57599473
4
Lattice="3.128588 0.0 0.0 -1.5642939988088433 2.709436998432005 0.0 0.0 0.0 5.016955" Properties=species:S:1:pos:R:3:spacegroup_kinds:I:1:momenta:R:3:forces:R:3 spacegroup="P 1" unit_cell=conventional occupancy="_JSON {\"0\": {\"Al\": 1}, \"1\": {\"Al\": 1}, \"2\": {\"N\": 1}, \"3\": {\"N\": 1}}" energy=-29.53631591796875 free_energy=-29.53631591796875 stress="-0.01985740475356579 0.013828900642693043 -0.005717358086258173 0.013828900642693043 -0.0031639914959669113 -0.0016709975898265839 -0.005717358086258173 -0.0016709975898265839 -0.006260455120354891" pbc="T T T"
Al       1.56291506       0.86348349       2.43836894        0      -1.44558852       0.38889110       0.34075020       0.67285836       0.11609519       1.45909476
Al      -0.01834140       1.83613134       5.05736568        1       0.19731514      -0.00921582       1.04742032       0.06595232       0.15003695      -1.19267249
N        1.54726696       0.95741147       4.47045640        2      -0.01023980       0.05685062       0.14844008       0.09761415      -0.44421029      -0.65174252
N        0.05576966       1.77068664       1.90062733        3       1.25851313      -0.43652592      -1.53661062      -0.83642483       0.17807814       0.38532037
4
Lattice="3.128588 0.0 0.0 -1.5642939988088433 2.709436998432005 0.0 0.0 0.0 5.016955" Properties=species:S:1:pos:R:3:spacegroup_kinds:I:1:momenta:R:3:forces:R:3 spacegroup="P 1" unit_cell=conventional occupancy="_JSON {\"0\": {\"Al\": 1}, \"1\": {\"Al\": 1}, \"2\": {\"N\": 1}, \"3\": {\"N\": 1}}" energy=-29.5310001373291 free_energy=-29.5310001373291 stress="-0.0182939600199461 0.015707531943917274 -0.011607720516622066 0.015707531943917274 0.0031481534242630005 0.004605704918503761 -0.011607720516622066 0.004605704918503761 -0.01725899986922741" pbc="T T T"
Al       1.54701073       0.87273546       2.46070916        0       0.71855734      -0.11584377       0.49435406       1.07476771      -0.28505820       1.06925440
Al      -0.01761626       1.84389391       5.05391116        1       0.19346414       0.17720434      -0.69190113       0.23187715      -0.07941946      -1.16825140
N        1.56395353       0.94331121       4.45961398        2       0.32487449      -0.12409444      -0.51346182      -0.11547177      -0.20503242      -0.72920221
N        0.06831350       1.75176767       1.87546339        3      -1.23689599       0.06273388       0.71100877      -1.19117320       0.56951016       0.82819951
4
Lattice="3.128588 0.0 0.0 -1.5642939988088433 2.709436998432005 0.0 0.0 0.0 5.016955" Properties=species:S:1:pos:R:3:spacegroup_kinds:I:1:momenta:R:3:forces:R:3 spacegroup="P 1" unit_cell=conventional occupancy="_JSON {\"0\": {\"Al\": 1}, \"1\": {\"Al\": 1}, \"2\": {\"N\": 1}, \"3\": {\"N\": 1}}" energy=-29.61321449279785 free_energy=-29.61321449279785 stress="-0.008381843566894531 -0.00427659135311842 0.005492880940437317 -0.00427659135311842 -0.013937084004282951 0.0014804138336330652 0.005492880940437317 0.0014804138336330652 0.012475389987230301" pbc="T T T"
Al       1.57767907       0.87033378       2.48321564        0       0.42145900      -0.10085987       0.75449346      -0.50598717       0.14215505       0.64867729
Al       0.00878683       1.84488738       5.00616578        1       0.94842509       0.04829712      -0.67234655      -0.28191024      -0.37569731       0.05942743
N        1.54733738       0.91884310       4.41695260        2      -0.50233571      -0.06173878      -0.86681638       0.26756743       0.16352510       0.34766734
N       -0.02491945       1.77881443       1.96659662        3      -0.86754840       0.11430153       0.78466939       0.52032983       0.07001723      -1.05577171
4
Lattice="3.128588 0.0 0.0 -1.5642939988088433 2.709436998432005 0.0 0.0 0.0 5.016955" Properties=species:S:1:pos:R:3:spacegroup_kinds:I:1:momenta:R:3:forces:R:3 spacegroup="P 1" unit_cell=conventional occupancy="_JSON {\"0\": {\"Al\": 1}, \"1\": {\"Al\": 1}, \"2\": {\"N\": 1}, \"3\": {\"N\": 1}}" energy=-29.557836532592773 free_energy=-29.557836532592773 stress="-0.01636401005089283 -0.0029474953189492226 0.012903755530714989 -0.0029474953189492226 -0.0062078991904854774 0.0015374816721305251 0.012903755530714989 0.0015374816721305251 -0.0027147820219397545" pbc="T T T"
Al       1.59068814       0.88023430       2.52274584        0      -0.41625592       0.17887008       0.33160792      -0.90884495      -0.14031225      -0.36867866
Al       0.01872293       1.83477377       4.97781992        1       0.14973975      -0.20763033      -0.17578563      -0.72829926      -0.10046297       0.72652781
N        1.52039171       0.92489993       4.39464376        2       0.19754336       0.25939906       0.47781786       0.72476059      -0.09604925       0.71573913
N       -0.04216869       1.77342025       1.96745698        3       0.06897279      -0.23063879      -0.63364018       0.91238368       0.33682466      -1.07358837
4
Lattice="3.128588 0.0 0.0 -1.5642939988088433 2.709436998432005 0.0 0.0 0.0 5.016955" Properties=species:S:1:pos:R:3:spacegroup_kinds:I:1:momenta:R:3:forces:R:3 spacegroup="P 1" unit_cell=conventional occupancy="_JSON {\"0\": {\"Al\": 1}, \"1\": {\"Al\": 1}, \"2\": {\"N\": 1}, \"3\": {\"N\": 1}}" energy=-29.62111473083496 free_energy=-29.62111473083496 stress="-0.021500876173377037 0.005276447162032127 -0.0032674616668373346 0.005276447162032127 0.010657583363354206 0.0019248781027272344 -0.0032674616668373346 0.0019248781027272344 -0.0015898654237389565" pbc="T T T"
Al       1.54767649       0.89587760       2.50832857        0      -0.85810032       0.46896477      -1.00002983       0.39160550      -0.39029038      -0.15032531
Al       0.00665803       1.82067516       5.00342495        1      -0.72966972      -0.11082635       1.46536740      -0.00949916       0.22697097       0.34863105
N        1.57185929       0.94293297       4.45440719        2       0.62349854      -0.37686508       0.64593145      -0.01969815      -0.43335426      -0.83890086
N        0.01256034       1.75229423       1.88600535        3       0.96427150       0.01872673      -1.11126902      -0.36240816       0.59667385       0.64059496
4
Lattice="3.128588 0.0 0.0 -1.5642939988088433 2.709436998432005 0.0 0.0 0.0 5.016955" Properties=species:S:1:pos:R:3:spacegroup_kinds:I:1:momenta:R:3:forces:R:3 spacegroup="P 1" unit_cell=conventional occupancy="_JSON {\"0\": {\"Al\": 1}, \"1\": {\"Al\": 1}, \"2\": {\"N\": 1}, \"3\": {\"N\": 1}}" energy=-29.520854949951172 free_energy=-29.520854949951172 stress="-0.014047370292246342 0.011821024119853973 -0.014255616813898087 0.011821024119853973 -0.005614703521132469 0.009361484088003635 -0.014255616813898087 0.009361484088003635 -0.019570916891098022" pbc="T T T"
Al       1.52999427       0.91403915       2.46474573        0       0.09545111      -0.23101228      -1.18071281       1.21875501      -0.63577163       0.99290013
Al      -0.00890655       1.82180733       5.05208965        1       0.31216890      -0.10747475       0.45537701       0.39472669      -0.38378391      -1.12710190
N        1.59437710       0.88605555       4.45928983        2      -0.04799004      -0.53350294      -0.20523261      -0.40810543       0.35578901      -0.79021621
N        0.05384453       1.77207219       1.87144998        3      -0.35962997       0.87199002       0.93056847      -1.20537615       0.66376662       0.92441821
4
Lattice="3.128588 0.0 0.0 -1.5642939988088433 2.709436998432005 0.0 0.0 0.0 5.016955" Properties=species:S:1:pos:R:3:spacegroup_kinds:I:1:momenta:R:3:forces:R:3 spacegroup="P 1" unit_cell=conventional occupancy="_JSON {\"0\": {\"Al\": 1}, \"1\": {\"Al\": 1}, \"2\": {\"N\": 1}, \"3\": {\"N\": 1}}" energy=-29.61878776550293 free_energy=-29.61878776550293 stress="0.010117864236235619 -0.0018220331985503435 -0.0018731442978605628 -0.0018220331985503435 -0.02478308603167534 0.004591172095388174 -0.0018731442978605628 0.004591172095388174 2.646991197252646e-05" pbc="T T T"
Al       1.53818033       0.90928016       2.47247636        0       0.23228601      -0.27447280       1.41733299       0.21201095       0.18702292       0.85530245
Al       0.01802689       1.81430743       5.03506514        1       0.60360823      -0.42930282      -1.11140714       0.03760266      -0.69444364      -0.55142426
N        1.59518013       0.85128050       4.42414644        2       0.09084600       0.02420698      -0.77345516      -0.19470343       0.84070694       0.01228252
N       -0.01452982       1.83034435       1.92467350        3      -0.92674028       0.67956864       0.46752931      -0.05491027      -0.33328646      -0.31616059
4
Lattice="3.128588 0.0 0.0 -1.5642939988088433 2.709436998432005 0.0 0.0 0.0 5.016955" Properties=species:S:1:pos:R:3:spacegroup_kinds:I:1:momenta:R:3:forces:R:3 spacegroup="P 1" unit_cell=conventional occupancy="_JSON {\"0\": {\"Al\": 1}, \"1\": {\"Al\": 1}, \"2\": {\"N\": 1}, \"3\": {\"N\": 1}}" energy=-29.623743057250977 free_energy=-29.623743057250977 stress="0.0043004718609154224 -0.008672581985592842 0.002882078755646944 -0.008672581985592842 -0.006943534594029188 -0.004434481263160706 0.002882078755646944 -0.004434481263160706 -0.014839217998087406" pbc="T T T"
Al       1.54321207       0.89379622       2.53645985        0      -0.00705409      -0.41529166       0.79444799      -0.25250196       0.39302909      -0.87834460
Al       0.03580898       1.79893952       4.98957808        1       0.09337931      -0.29525068      -0.61191859      -0.16601317       0.14058140       0.62745070
N        1.59619755       0.90645096       4.40111844        2      -0.02189839       1.09350612       0.27120812      -0.08899646      -0.09593789       0.34911248
N       -0.05911263       1.83464208       1.91219255        3      -0.06442686      -0.38296382      -0.45373755       0.50751138      -0.43767244      -0.09821904
