4
Lattice="3.128588 0.0 0.0 -1.5642939988088433 2.709436998432005 0.0 0.0 0.0 5.016955" Properties=species:S:1:pos:R:3:spacegroup_kinds:I:1:forces:R:3 spacegroup="P 1" unit_cell=conventional occupancy="_JSON {\"0\": {\"Al\": 1}, \"1\": {\"Al\": 1}, \"2\": {\"N\": 1}, \"3\": {\"N\": 1}}" energy=-29.673717498779297 free_energy=-29.673717498779297 stress="-0.0022254858631640673 -1.3347458889256814e-06 -7.357596754076212e-09 -1.3347458889256814e-06 -0.002227452117949724 -2.676621413399971e-08 -7.357596754076212e-09 -2.676621413399971e-08 -0.005453644320368767" pbc="T T T"
Al       1.56429556       0.90314476       2.50490041        0      -0.00003436       0.00001972       0.00553188
Al      -0.00000156       1.80629224       5.01337791        1       0.00003363      -0.00001914       0.00552508
N        1.56429556       0.90314476       4.41849749        2      -0.00003540       0.00002001      -0.00553046
N       -0.00000156       1.80629224       1.91001999        3       0.00003602      -0.00002052      -0.00552618
