13
Lattice="7.26870274 0.0 0.0 3.634351370000001 6.294881225397555 0.0 3.634351370000001 2.0982937417991856 5.934870934989993" Properties=species:S:1:pos:R:3:spacegroup_kinds:I:1:forces:R:3 spacegroup="P 1" unit_cell=conventional occupancy="_JSON {\"0\": {\"Li\": 1}, \"1\": {\"Li\": 1}, \"2\": {\"Li\": 1}, \"3\": {\"Li\": 1}, \"4\": {\"Li\": 1}, \"5\": {\"Li\": 1}, \"6\": {\"P\": 1}, \"7\": {\"S\": 1}, \"8\": {\"S\": 1}, \"9\": {\"S\": 1}, \"10\": {\"S\": 1}, \"11\": {\"S\": 1}, \"12\": {\"Cl\": 1}}" energy=-53.3634147644043 free_energy=-53.3634147644043 stress="-0.0007941859657876194 -2.38603377056279e-07 -1.580710033977084e-07 -2.38603377056279e-07 -0.0007939308416098356 -1.0335919853332598e-07 -1.580710033977084e-07 -1.0335919853332598e-07 -0.0007939015049487352" pbc="T T T"
Li       9.25387995       7.24703237       3.10460814        0       0.00422610      -0.00243439       0.00344885
Li      12.55222827       5.34273008       5.79769826        1      -0.00421201       0.00243361      -0.00344190
Li       9.25387995       5.34273008       5.79769826        2       0.00422432       0.00243876      -0.00344662
Li      12.55222827       7.24703237       3.10460814        3      -0.00421163      -0.00243060       0.00344060
Li      10.90305411       4.39057894       3.10460814        4       0.00000238       0.00487679       0.00344806
Li      10.90305411       8.19918351       5.79769826        5       0.00000205      -0.00486338      -0.00344139
P        7.26870274       4.19658748       2.96743547        6       0.00008563       0.00004579       0.00003600
S        7.26870637       6.13578650       2.28182731        7      -0.00001786      -0.01091050       0.00384724
S        8.94810016       3.22699113       2.28182731        8      -0.00945777       0.00544044       0.00384735
S        5.58931258       3.22699113       2.28182731        9       0.00937783       0.00541279       0.00383027
S        7.26870637       4.19658958       5.02426588       10      -0.00001882      -0.00000926      -0.01156874
S       10.90305411       6.29488123       4.45115320       11      -0.00000165      -0.00000113       0.00000018
Cl       0.00000000       0.00000000       0.00000000       12       0.00000146       0.00000109       0.00000015
