13
Lattice="7.26870274 0.0 0.0 3.634351370000001 6.294881225397555 0.0 3.634351370000001 2.0982937417991856 5.934870934989993" Properties=species:S:1:pos:R:3:spacegroup_kinds:I:1:forces:R:3 spacegroup="P 1" unit_cell=conventional occupancy="_JSON {\"0\": {\"Li\": 1}, \"1\": {\"Li\": 1}, \"2\": {\"Li\": 1}, \"3\": {\"Li\": 1}, \"4\": {\"Li\": 1}, \"5\": {\"Li\": 1}, \"6\": {\"P\": 1}, \"7\": {\"S\": 1}, \"8\": {\"S\": 1}, \"9\": {\"S\": 1}, \"10\": {\"S\": 1}, \"11\": {\"S\": 1}, \"12\": {\"Cl\": 1}}" energy=-53.3634147644043 free_energy=-53.3634147644043 stress="-0.0007942026131786406 -2.414743391909724e-07 -1.5405457531869615e-07 -2.414743391909724e-07 -0.0007939523784443736 -1.1644669939414598e-07 -1.5405457531869615e-07 -1.1644669939414598e-07 -0.0007939237984828651" pbc="T T T"
Li       9.25387995       7.24703237       3.10460814        0       0.00422581      -0.00243454       0.00344804
Li      12.55222827       5.34273008       5.79769826        1      -0.00421088       0.00243310      -0.00344115
Li       9.25387995       5.34273008       5.79769826        2       0.00422464       0.00243936      -0.00344688
Li      12.55222827       7.24703237       3.10460814        3      -0.00421179      -0.00243089       0.00344085
Li      10.90305411       4.39057894       3.10460814        4       0.00000241       0.00487649       0.00344849
Li      10.90305411       8.19918351       5.79769826        5       0.00000216      -0.00486415      -0.00344155
P        7.26870274       4.19658748       2.96743547        6       0.00008492       0.00004671       0.00003613
S        7.26870637       6.13578650       2.28182731        7      -0.00001850      -0.01091015       0.00384786
S        8.94810016       3.22699113       2.28182731        8      -0.00945836       0.00544089       0.00384740
S        5.58931258       3.22699113       2.28182731        9       0.00937801       0.00541292       0.00383037
S        7.26870637       4.19658958       5.02426588       10      -0.00001890      -0.00000958      -0.01156995
S       10.90305411       6.29488123       4.45115320       11      -0.00000111      -0.00000126      -0.00000075
Cl       0.00000000       0.00000000       0.00000000       12       0.00000155       0.00000105       0.00000116
