4
Lattice="3.128588 0.0 0.0 -1.5642939988088433 2.709436998432005 0.0 0.0 0.0 5.016955" Properties=species:S:1:pos:R:3:spacegroup_kinds:I:1:momenta:R:3:forces:R:3 spacegroup="P 1" unit_cell=conventional occupancy="_JSON {\"0\": {\"Al\": 1}, \"1\": {\"Al\": 1}, \"2\": {\"N\": 1}, \"3\": {\"N\": 1}}" energy=-29.623743057250977 free_energy=-29.623743057250977 stress="0.004300593864172697 -0.008672400377690792 0.0028817655984312296 -0.008672400377690792 -0.006943728309124708 -0.004434448201209307 0.0028817655984312296 -0.004434448201209307 -0.014838973991572857" pbc="T T T"
Al       1.54321207       0.89379625       2.53645982        0      -0.00705414      -0.41529099       0.79444891      -0.25250217       0.39302853      -0.87834328
Al       0.03580899       1.79893953       4.98957810        1       0.09337939      -0.29525102      -0.61191904      -0.16600800       0.14057729       0.62744772
N        1.59619757       0.90645094       4.40111845        2      -0.02189811       1.09350640       0.27120958      -0.08899933      -0.09593470       0.34911200
N       -0.05911258       1.83464208       1.91219258        3      -0.06442709      -0.38296439      -0.45373935       0.50750947      -0.43767130      -0.09821643
