4
Lattice="3.128588 0.0 0.0 -1.5642939988088433 2.709436998432005 0.0 0.0 0.0 5.016955" Properties=species:S:1:pos:R:3:spacegroup_kinds:I:1:momenta:R:3:forces:R:3 spacegroup="P 1" unit_cell=conventional occupancy="_JSON {\"0\": {\"Al\": 1}, \"1\": {\"Al\": 1}, \"2\": {\"N\": 1}, \"3\": {\"N\": 1}}" energy=-29.673717498779297 free_energy=-29.673717498779297 stress="-0.0022251084446907043 -1.376150635223894e-06 -2.0420035440338324e-08 -1.376150635223894e-06 -0.0022273606155067682 -8.001907758625748e-08 -2.0420035440338324e-08 -8.001907758625748e-08 -0.005453672260046005" pbc="T T T"
Al       1.56429556       0.90314476       2.50490041        0       0.68448204       0.53670047       0.91071479      -0.00003489       0.00002123       0.00553222
Al      -0.00000156       1.80629224       5.01337791        1       0.31075784       0.39520501      -1.87833745       0.00003526      -0.00001963       0.00552316
N        1.56429556       0.90314476       4.41849749        2      -0.23293981      -0.79739853      -0.40745139      -0.00003728       0.00002034      -0.00552870
N       -0.00000156       1.80629224       1.91001999        3      -0.76230006      -0.13450696       1.37507406       0.00003684      -0.00002178      -0.00552659
4
Lattice="3.128588 0.0 0.0 -1.5642939988088433 2.709436998432005 0.0 0.0 0.0 5.016955" Properties=species:S:1:pos:R:3:spacegroup_kinds:I:1:momenta:R:3:forces:R:3 spacegroup="P 1" unit_cell=conventional occupancy="_JSON {\"0\": {\"Al\": 1}, \"1\": {\"Al\": 1}, \"2\": {\"N\": 1}, \"3\": {\"N\": 1}}" energy=-29.43359375 free_energy=-29.43359375 stress="-0.01377341989427805 -0.01644643023610115 0.012948774732649326 -0.01644643023610115 -0.023968784138560295 0.009969727136194706 0.012948774732649326 0.009969727136194706 -0.012059459462761879" pbc="T T T"
Al       1.60246140       0.92231284       2.54150849        0       0.57498197      -0.13491961       1.02882517      -1.31301284      -0.49033409      -0.87831318
Al       0.00328788       1.81111139       4.94718774        1      -0.44725813       0.00118041      -1.07867353      -0.30154186      -0.59423238       1.18011844
N        1.53678588       0.85870780       4.38099594        2       0.14052037      -0.46066714       0.20203873       0.28490767       0.67984456       1.25553536
N       -0.05228244       1.80432669       2.00436658        3      -0.26824423       0.59440631      -0.15219043       1.32964718       0.40472159      -1.55734086
4
Lattice="3.128588 0.0 0.0 -1.5642939988088433 2.709436998432005 0.0 0.0 0.0 5.016955" Properties=species:S:1:pos:R:3:spacegroup_kinds:I:1:momenta:R:3:forces:R:3 spacegroup="P 1" unit_cell=conventional occupancy="_JSON {\"0\": {\"Al\": 1}, \"1\": {\"Al\": 1}, \"2\": {\"N\": 1}, \"3\": {\"N\": 1}}" energy=-29.567256927490234 free_energy=-29.567256927490234 stress="0.01291570533066988 0.0017025552224367857 0.003579450072720647 0.0017025552224367857 -0.02585686556994915 -0.0053690355271101 0.003579450072720647 -0.0053690355271101 -0.011435125023126602" pbc="T T T"
Al       1.59598185       0.90138487       2.55101266        0      -0.85003975      -0.64755179      -0.41676299      -0.33522564       0.74370164      -1.26921129
Al      -0.01311800       1.79082858       4.96769656        1      -0.24557036      -0.74327786       1.65595753      -0.18280244      -0.17026895       1.21499550
N        1.52960409       0.86779352       4.41996342        2       0.16413062       0.60763585       0.63654585       0.31887630       0.39321312      -0.09057045
N       -0.00060093       1.87475186       1.90756519        3       0.93147944       0.78319381      -1.87574039       0.19915175      -0.96664613       0.14478615
4
Lattice="3.128588 0.0 0.0 -1.5642939988088433 2.709436998432005 0.0 0.0 0.0 5.016955" Properties=species:S:1:pos:R:3:spacegroup_kinds:I:1:momenta:R:3:forces:R:3 spacegroup="P 1" unit_cell=conventional occupancy="_JSON {\"0\": {\"Al\": 1}, \"1\": {\"Al\": 1}, \"2\": {\"N\": 1}, \"3\": {\"N\": 1}}" energy=-29.406274795532227 free_energy=-29.406274795532227 stress="0.010688787326216698 0.016498273238539696 -0.008164016529917717 0.016498273238539696 -0.00942326057702303 -0.015553953126072884 -0.008164016529917717 -0.015553953126072884 -0.06125402823090553" pbc="T T T"
Al       1.53423929       0.87298461       2.51007452        0      -1.60925364       0.09619165      -1.03262385       0.74608874       1.00298548       0.03482421
Al      -0.01349004       1.78470222       5.05709163        1       0.21561236      -0.04339790       1.72443397       0.02271220       0.40732998      -1.66437078
N        1.55208972       0.92225132       4.42203508        2       0.38659384       0.63935810      -0.93002933       0.04495812      -0.39009780      -0.56986105
N        0.09667397       1.88681816       1.81230439        3       1.00704739      -0.69215186       0.23821925      -0.81375909      -1.02021742       2.19940710
4
Lattice="3.128588 0.0 0.0 -1.5642939988088433 2.709436998432005 0.0 0.0 0.0 5.016955" Properties=species:S:1:pos:R:3:spacegroup_kinds:I:1:momenta:R:3:forces:R:3 spacegroup="P 1" unit_cell=conventional occupancy="_JSON {\"0\": {\"Al\": 1}, \"1\": {\"Al\": 1}, \"2\": {\"N\": 1}, \"3\": {\"N\": 1}}" energy=-29.201904296875 free_energy=-29.201904296875 stress="-0.02644076570868492 0.038155172020196915 -0.03138267621397972 0.038155172020196915 -0.004877547267824411 0.0015436996472999454 -0.03138267621397972 0.0015436996472999454 -0.051819901913404465" pbc="T T T"
Al       1.49382403       0.87740190       2.48150485        0      -0.08661665      -0.02748800       0.25595498       2.48428226      -0.46186316       1.22611570
Al      -0.02076736       1.79337852       5.08843300        1       0.00716754       0.60209069      -1.27068183       0.64723295       0.57433414      -2.36003971
N        1.60157220       0.96971685       4.33361321        2       0.49437249       0.53651039      -0.17473369      -0.53882498      -0.70145178       1.74608994
N        0.13924906       1.81421455       1.89535163        3      -0.41492340      -1.11111307       1.18946056      -2.59269023       0.58898103      -0.61216557
4
Lattice="3.128588 0.0 0.0 -1.5642939988088433 2.709436998432005 0.0 0.0 0.0 5.016955" Properties=species:S:1:pos:R:3:spacegroup_kinds:I:1:momenta:R:3:forces:R:3 spacegroup="P 1" unit_cell=conventional occupancy="_JSON {\"0\": {\"Al\": 1}, \"1\": {\"Al\": 1}, \"2\": {\"N\": 1}, \"3\": {\"N\": 1}}" energy=-29.574628829956055 free_energy=-29.574628829956055 stress="-0.023617928847670555 -0.014321441762149334 -0.011128062382340431 -0.014321441762149334 0.01503015123307705 -0.00285454373806715 -0.011128062382340431 -0.00285454373806715 -0.014440164901316166" pbc="T T T"
Al       1.53421961       0.88369268       2.53780576        0       1.55944011       0.36820877       1.55971015       0.29264572      -0.24000761      -0.91367316
Al      -0.00048007       1.82107765       4.98837348        1       1.01688548       0.86374301      -2.47525533       0.94369447       0.52251267       0.78485817
N        1.63583964       0.96584651       4.40663184        2      -0.31021870      -0.52489276       1.27117385      -1.15103722      -0.78906691       0.05688103
N       -0.01177518       1.75252282       1.90648730        3      -2.26610680      -0.70705898      -0.35562870      -0.08530308       0.50656176       0.07193387
4
Lattice="3.128588 0.0 0.0 -1.5642939988088433 2.709436998432005 0.0 0.0 0.0 5.016955" Properties=species:S:1:pos:R:3:spacegroup_kinds:I:1:momenta:R:3:forces:R:3 spacegroup="P 1" unit_cell=conventional occupancy="_JSON {\"0\": {\"Al\": 1}, \"1\": {\"Al\": 1}, \"2\": {\"N\": 1}, \"3\": {\"N\": 1}}" energy=-29.372068405151367 free_energy=-29.372068405151367 stress="-0.005629499442875385 -0.018719661980867386 0.015849430114030838 -0.018719661980867386 -0.032272737473249435 0.017212066799402237 0.015849430114030838 0.017212066799402237 -0.007298413198441267" pbc="T T T"
Al       1.57072833       0.88046441       2.56331972        0      -0.00039204      -0.37629468      -0.57844010      -1.34386051      -0.44065598      -1.50707817
Al       0.05055070       1.86456081       4.94968569        1       0.52726985       0.77034164       1.04960068      -0.49128696      -1.36434019       1.82584751
N        1.58204801       0.88176662       4.44992392        2      -0.27832198      -1.02263386      -0.55459234       0.15003362       1.16376340      -0.85894847
N       -0.12661082       1.75915454       1.88869870        3      -0.24855572       0.62858695       0.08343168       1.68511367       0.64123309       0.54017901
4
Lattice="3.128588 0.0 0.0 -1.5642939988088433 2.709436998432005 0.0 0.0 0.0 5.016955" Properties=species:S:1:pos:R:3:spacegroup_kinds:I:1:momenta:R:3:forces:R:3 spacegroup="P 1" unit_cell=conventional occupancy="_JSON {\"0\": {\"Al\": 1}, \"1\": {\"Al\": 1}, \"2\": {\"N\": 1}, \"3\": {\"N\": 1}}" energy=-29.596925735473633 free_energy=-29.596925735473633 stress="0.015976255759596825 -0.004506236407905817 0.006018629297614098 -0.004506236407905817 -0.02549947053194046 -0.00459714513272047 0.006018629297614098 -0.00459714513272047 -0.010013751685619354" pbc="T T T"
Al       1.53284808       0.86390066       2.51395076        0      -1.59464470      -0.16469667      -1.74991288      -0.27820915       0.89915609      -0.15420672
Al       0.06317840       1.83227867       5.00948375        1       0.38440007      -1.80666597       1.59449923      -0.58708507      -0.41271621       0.16725445
N        1.58572481       0.89623787       4.41422581        2       0.14193161       1.12964937      -0.09119146       0.25704142       0.38076627       0.00228029
N       -0.08152106       1.83862417       1.90381448        3       1.06831306       0.84171331       0.24660502       0.60825264      -0.86720598      -0.01532765
4
Lattice="3.128588 0.0 0.0 -1.5642939988088433 2.709436998432005 0.0 0.0 0.0 5.016955" Properties=species:S:1:pos:R:3:spacegroup_kinds:I:1:momenta:R:3:forces:R:3 spacegroup="P 1" unit_cell=conventional occupancy="_JSON {\"0\": {\"Al\": 1}, \"1\": {\"Al\": 1}, \"2\": {\"N\": 1}, \"3\": {\"N\": 1}}" energy=-29.462553024291992 free_energy=-29.462553024291992 stress="-0.005696952808648348 0.010849460028111935 -0.003906584810465574 0.010849460028111935 -0.01913374662399292 -0.01270322222262621 -0.003906584810465574 -0.01270322222262621 -0.011871571652591228" pbc="T T T"
Al       1.48347332       0.88264395       2.44527930        0      -0.30454535       1.01149536      -0.60004532       0.88393122       0.95768487       1.70776987
Al       0.06164410       1.77681261       5.07306070        1      -0.86715203      -0.75617419       0.43049038      -0.30080664       0.71655160      -1.72280097
N        1.61717709       0.94947184       4.40498425        2       0.38645798       0.04830096       0.18623220      -0.07233980      -0.67485905       0.48910803
N       -0.01486933       1.85626146       1.92266700        3       0.78523942      -0.30362208      -0.01667737      -0.51078510      -0.99937743      -0.47407711
4
Lattice="3.128588 0.0 0.0 -1.5642939988088433 2.709436998432005 0.0 0.0 0.0 5.016955" Properties=species:S:1:pos:R:3:spacegroup_kinds:I:1:momenta:R:3:forces:R:3 spacegroup="P 1" unit_cell=conventional occupancy="_JSON {\"0\": {\"Al\": 1}, \"1\": {\"Al\": 1}, \"2\": {\"N\": 1}, \"3\": {\"N\": 1}}" energy=-29.51875114440918 free_energy=-29.51875114440918 stress="-0.02337060496211052 0.00654002046212554 -0.016098152846097946 0.00654002046212554 0.006697661243379116 -0.00048237931332550943 -0.016098152846097946 -0.00048237931332550943 -0.022161003202199936" pbc="T T T"
Al       1.50607638       0.94974319       2.46463695        0       1.15921283       0.62635210       1.50689843       1.24247515      -0.60704625       1.15697324
Al       0.01335472       1.75088040       5.06242877        1      -0.91112030       0.14825203      -0.88962553       0.51474452       0.69610184      -1.43088925
N        1.62637953       0.90489622       4.42127854        2      -0.14223517      -0.64065025       0.21498390      -0.71771622      -0.51823801      -0.07984894
N        0.02538013       1.82158365       1.88963021        3      -0.10585734      -0.13395385      -0.83225691      -1.03950357       0.42918262       0.35376546
4
Lattice="3.128588 0.0 0.0 -1.5642939988088433 2.709436998432005 0.0 0.0 0.0 5.016955" Properties=species:S:1:pos:R:3:spacegroup_kinds:I:1:momenta:R:3:forces:R:3 spacegroup="P 1" unit_cell=conventional occupancy="_JSON {\"0\": {\"Al\": 1}, \"1\": {\"Al\": 1}, \"2\": {\"N\": 1}, \"3\": {\"N\": 1}}" energy=-29.605009078979492 free_energy=-29.605009078979492 stress="0.0015959285665303469 -0.006785823963582516 -0.0030954042449593544 -0.006785823963582516 0.001780585153028369 0.0017245208146050572 -0.0030954042449593544 0.0017245208146050572 -0.023114977404475212" pbc="T T T"
Al       1.56693923       0.93861030       2.54470905        0       1.44875325      -0.98943807       1.48437369      -0.01659363      -0.29131481      -1.20299566
Al      -0.01304570       1.78057343       4.99752453        1       0.01689744       1.11024924      -1.70730104       0.38438791       0.02358231       0.50759393
N        1.58384203       0.87104975       4.42155572        2      -0.67927403      -0.02704922      -0.19037135      -0.39236975       0.15177935      -0.39792633
N        0.00122217       1.81989281       1.85992054        3      -0.78637663      -0.09376189       0.41329861       0.02457532       0.11595331       1.09332800
4
Lattice="3.128588 0.0 0.0 -1.5642939988088433 2.709436998432005 0.0 0.0 0.0 5.016955" Properties=species:S:1:pos:R:3:spacegroup_kinds:I:1:momenta:R:3:forces:R:3 spacegroup="P 1" unit_cell=conventional occupancy="_JSON {\"0\": {\"Al\": 1}, \"1\": {\"Al\": 1}, \"2\": {\"N\": 1}, \"3\": {\"N\": 1}}" energy=-29.470205307006836 free_energy=-29.470205307006836 stress="0.003203106112778187 -0.017801558598876 0.011838321574032307 -0.017801558598876 -0.04134930670261383 0.0073599074967205524 0.011838321574032307 0.0073599074967205524 -0.005160261876881123" pbc="T T T"
Al       1.62755627       0.89950079       2.54516750        0       1.04970757      -0.99981863      -0.80202800      -1.41065133       0.15933281      -0.91778737
Al      -0.00757059       1.81703571       4.95606282        1      -0.03757956       0.11959947      -0.16512871      -0.26242352      -0.84351450       1.41445637
N        1.52756237       0.85151206       4.42065484        2      -0.42752175       0.29022975      -0.07965761       0.31765547       0.98894519      -0.00115329
N       -0.06966664       1.84442114       1.93994539        3      -0.58460622       0.58998945       1.04681432       1.35541940      -0.30476314      -0.49551561
4
Lattice="3.128588 0.0 0.0 -1.5642939988088433 2.709436998432005 0.0 0.0 0.0 5.016955" Properties=species:S:1:pos:R:3:spacegroup_kinds:I:1:momenta:R:3:forces:R:3 spacegroup="P 1" unit_cell=conventional occupancy="_JSON {\"0\": {\"Al\": 1}, \"1\": {\"Al\": 1}, \"2\": {\"N\": 1}, \"3\": {\"N\": 1}}" energy=-29.452987670898438 free_energy=-29.452987670898438 stress="-0.01322541106492281 -0.02375005930662155 0.00791151449084282 -0.02375005930662155 -0.04793180525302887 -0.007333291228860617 0.00791151449084282 -0.007333291228860617 0.028632964938879013" pbc="T T T"
Al       1.63184038       0.85684031       2.46693549        0      -0.97589060      -0.55899552      -1.34838360      -1.39010274       1.11025655       1.17303884
Al      -0.02377744       1.82170282       4.98999597        1      -0.28018777       0.45883545       1.28013584      -0.08532552       0.08283370       0.34697351
N        1.52792702       0.92957748       4.44479002        2       0.11446446       0.97873230       0.08012566       0.22036140      -0.17398606       0.05599201
N       -0.04718869       1.83921500       2.00086011        3       1.14161395      -0.87857216      -0.01187791       1.25506687      -1.01910424      -1.57600415
4
Lattice="3.128588 0.0 0.0 -1.5642939988088433 2.709436998432005 0.0 0.0 0.0 5.016955" Properties=species:S:1:pos:R:3:spacegroup_kinds:I:1:momenta:R:3:forces:R:3 spacegroup="P 1" unit_cell=conventional occupancy="_JSON {\"0\": {\"Al\": 1}, \"1\": {\"Al\": 1}, \"2\": {\"N\": 1}, \"3\": {\"N\": 1}}" energy=-29.53631591796875 free_energy=-29.53631591796875 stress="-0.019857726991176605 0.013828923925757408 -0.0057173557579517365 0.013828923925757408 -0.003164153080433607 -0.0016710460186004639 -0.0057173557579517365 -0.0016710460186004639 -0.006260679569095373" pbc="T T T"
Al       1.56291506       0.86348347       2.43836897        0      -1.44558816       0.38889044       0.34074970       0.67285848       0.11609465       1.45909667
Al      -0.01834139       1.83613138       5.05736569        1       0.19731563      -0.00921561       1.04742127       0.06595299       0.15003736      -1.19267535
N        1.54726697       0.95741147       4.47045640        2      -0.01024054       0.05685066       0.14844055       0.09761322      -0.44421023      -0.65174693
N        0.05576966       1.77068664       1.90062723        3       1.25851312      -0.43652541      -1.53661151      -0.83642477       0.17807831       0.38532564
4
Lattice="3.128588 0.0 0.0 -1.5642939988088433 2.709436998432005 0.0 0.0 0.0 5.016955" Properties=species:S:1:pos:R:3:spacegroup_kinds:I:1:momenta:R:3:forces:R:3 spacegroup="P 1" unit_cell=conventional occupancy="_JSON {\"0\": {\"Al\": 1}, \"1\": {\"Al\": 1}, \"2\": {\"N\": 1}, \"3\": {\"N\": 1}}" energy=-29.531002044677734 free_energy=-29.531002044677734 stress="-0.018293993547558784 0.01570785418152809 -0.011607784777879715 0.01570785418152809 0.003147770883515477 0.004605747759342194 -0.011607784777879715 0.004605747759342194 -0.017258863896131516" pbc="T T T"
Al       1.54701074       0.87273542       2.46070914        0       0.71855754      -0.11584405       0.49435328       1.07476568      -0.28505772       1.06925917
Al      -0.01761624       1.84389395       5.05391120        1       0.19346382       0.17720446      -0.69190182       0.23187816      -0.07941997      -1.16825461
N        1.56395351       0.94331124       4.45961399        2       0.32487459      -0.12409437      -0.51346207      -0.11547101      -0.20503357      -0.72920179
N        0.06831350       1.75176771       1.87546334        3      -1.23689591       0.06273400       0.71101065      -1.19117272       0.56951129       0.82819736
4
Lattice="3.128588 0.0 0.0 -1.5642939988088433 2.709436998432005 0.0 0.0 0.0 5.016955" Properties=species:S:1:pos:R:3:spacegroup_kinds:I:1:momenta:R:3:forces:R:3 spacegroup="P 1" unit_cell=conventional occupancy="_JSON {\"0\": {\"Al\": 1}, \"1\": {\"Al\": 1}, \"2\": {\"N\": 1}, \"3\": {\"N\": 1}}" energy=-29.61321258544922 free_energy=-29.61321258544922 stress="-0.008381688967347145 -0.004276737570762634 0.00549284927546978 -0.004276737570762634 -0.013937224633991718 0.0014804874081164598 0.00549284927546978 0.0014804874081164598 0.012475378811359406" pbc="T T T"
Al       1.57767909       0.87033376       2.48321562        0       0.42145935      -0.10085901       0.75449369      -0.50598693       0.14215252       0.64867681
Al       0.00878682       1.84488742       5.00616577        1       0.94842472       0.04829714      -0.67234678      -0.28191078      -0.37569845       0.05942824
N        1.54733739       0.91884311       4.41695258        2      -0.50233556      -0.06173891      -0.86681668       0.26756802       0.16352661       0.34766638
N       -0.02491943       1.77881444       1.96659669        3      -0.86754849       0.11430081       0.78466981       0.52032965       0.07001933      -1.05577111
4
Lattice="3.128588 0.0 0.0 -1.5642939988088433 2.709436998432005 0.0 0.0 0.0 5.016955" Properties=species:S:1:pos:R:3:spacegroup_kinds:I:1:momenta:R:3:forces:R:3 spacegroup="P 1" unit_cell=conventional occupancy="_JSON {\"0\": {\"Al\": 1}, \"1\": {\"Al\": 1}, \"2\": {\"N\": 1}, \"3\": {\"N\": 1}}" energy=-29.557836532592773 free_energy=-29.557836532592773 stress="-0.016363710165023804 -0.0029472941532731056 0.012903671711683273 -0.0029472941532731056 -0.006207564380019903 0.0015375751536339521 0.012903671711683273 0.0015375751536339521 -0.0027146250940859318" pbc="T T T"
Al       1.59068816       0.88023432       2.52274585        0      -0.41625589       0.17887074       0.33160830      -0.90884262      -0.14030632      -0.36868036
Al       0.01872291       1.83477378       4.97781990        1       0.14973969      -0.20763117      -0.17578510      -0.72829694      -0.10046451       0.72652781
N        1.52039172       0.92489996       4.39464373        2       0.19754350       0.25939947       0.47781799       0.72476071      -0.09604880       0.71574402
N       -0.04216865       1.77342022       1.96745702        3       0.06897272      -0.23063905      -0.63364115       0.91237915       0.33681995      -1.07359135
4
Lattice="3.128588 0.0 0.0 -1.5642939988088433 2.709436998432005 0.0 0.0 0.0 5.016955" Properties=species:S:1:pos:R:3:spacegroup_kinds:I:1:momenta:R:3:forces:R:3 spacegroup="P 1" unit_cell=conventional occupancy="_JSON {\"0\": {\"Al\": 1}, \"1\": {\"Al\": 1}, \"2\": {\"N\": 1}, \"3\": {\"N\": 1}}" energy=-29.621110916137695 free_energy=-29.621110916137695 stress="-0.021500850096344948 0.005276555195450783 -0.003267491003498435 0.005276555195450783 0.010657787322998047 0.0019249152392148972 -0.003267491003498435 0.0019249152392148972 -0.0015898317797109485" pbc="T T T"
Al       1.54767651       0.89587763       2.50832861        0      -0.85809984       0.46896450      -1.00002930       0.39160281      -0.39029235      -0.15032539
Al       0.00665801       1.82067515       5.00342493        1      -0.72966939      -0.11082631       1.46536700      -0.00949432       0.22697079       0.34862730
N        1.57185931       0.94293300       4.45440722        2       0.62349825      -0.37686556       0.64593228      -0.01970107      -0.43335426      -0.83889914
N        0.01256036       1.75229421       1.88600531        3       0.96427103       0.01872738      -1.11126990      -0.36240739       0.59667593       0.64059758
4
Lattice="3.128588 0.0 0.0 -1.5642939988088433 2.709436998432005 0.0 0.0 0.0 5.016955" Properties=species:S:1:pos:R:3:spacegroup_kinds:I:1:momenta:R:3:forces:R:3 spacegroup="P 1" unit_cell=conventional occupancy="_JSON {\"0\": {\"Al\": 1}, \"1\": {\"Al\": 1}, \"2\": {\"N\": 1}, \"3\": {\"N\": 1}}" energy=-29.520856857299805 free_energy=-29.520856857299805 stress="-0.014047483913600445 0.011821003630757332 -0.014255574904382229 0.011821003630757332 -0.005614773835986853 0.009361457079648972 -0.014255574904382229 0.009361457079648972 -0.019571062177419662" pbc="T T T"
Al       1.52999430       0.91403916       2.46474576        0       0.09545086      -0.23101251      -1.18071373       1.21875453      -0.63577139       0.99290287
Al      -0.00890655       1.82180734       5.05208962        1       0.31216918      -0.10747448       0.45537746       0.39472723      -0.38378584      -1.12710309
N        1.59437710       0.88605553       4.45928986        2      -0.04799027      -0.53350338      -0.20523382      -0.40810460       0.35578996      -0.79021752
N        0.05384454       1.77207223       1.87144997        3      -0.35962973       0.87199039       0.93057019      -1.20537686       0.66376740       0.92441779
4
Lattice="3.128588 0.0 0.0 -1.5642939988088433 2.709436998432005 0.0 0.0 0.0 5.016955" Properties=species:S:1:pos:R:3:spacegroup_kinds:I:1:momenta:R:3:forces:R:3 spacegroup="P 1" unit_cell=conventional occupancy="_JSON {\"0\": {\"Al\": 1}, \"1\": {\"Al\": 1}, \"2\": {\"N\": 1}, \"3\": {\"N\": 1}}" energy=-29.61878776550293 free_energy=-29.61878776550293 stress="0.010117524303495884 -0.001821976387873292 -0.001873005530796945 -0.001821976387873292 -0.024783091619610786 0.0045911758206784725 -0.001873005530796945 0.0045911758206784725 2.6525975044933148e-05" pbc="T T T"
Al       1.53818034       0.90928018       2.47247634        0       0.23228571      -0.27447213       1.41733251       0.21201226       0.18702379       0.85530722
Al       0.01802690       1.81430744       5.03506514        1       0.60360831      -0.42930300      -1.11140621       0.03760024      -0.69444156      -0.55143064
N        1.59518012       0.85128047       4.42414638        2       0.09084615       0.02420725      -0.77345563      -0.19470052       0.84070671       0.01229066
N       -0.01452978       1.83034440       1.92467360        3      -0.92674014       0.67956791       0.46752944      -0.05491187      -0.33328879      -0.31616738
4
Lattice="3.128588 0.0 0.0 -1.5642939988088433 2.709436998432005 0.0 0.0 0.0 5.016955" Properties=species:S:1:pos:R:3:spacegroup_kinds:I:1:momenta:R:3:forces:R:3 spacegroup="P 1" unit_cell=conventional occupancy="_JSON {\"0\": {\"Al\": 1}, \"1\": {\"Al\": 1}, \"2\": {\"N\": 1}, \"3\": {\"N\": 1}}" energy=-29.623743057250977 free_energy=-29.623743057250977 stress="0.004300593864172697 -0.008672400377690792 0.0028817655984312296 -0.008672400377690792 -0.006943728309124708 -0.004434448201209307 0.0028817655984312296 -0.004434448201209307 -0.014838973991572857" pbc="T T T"
Al       1.54321207       0.89379625       2.53645982        0      -0.00705414      -0.41529099       0.79444891      -0.25250217       0.39302853      -0.87834328
Al       0.03580899       1.79893953       4.98957810        1       0.09337939      -0.29525102      -0.61191904      -0.16600800       0.14057729       0.62744772
N        1.59619757       0.90645094       4.40111845        2      -0.02189811       1.09350640       0.27120958      -0.08899933      -0.09593470       0.34911200
N       -0.05911258       1.83464208       1.91219258        3      -0.06442709      -0.38296439      -0.45373935       0.50750947      -0.43767130      -0.09821643
