4
Lattice="3.128588 0.0 0.0 -1.5642939988088433 2.709436998432005 0.0 0.0 0.0 5.016955" Properties=species:S:1:pos:R:3:spacegroup_kinds:I:1:forces:R:3 spacegroup="P 1" unit_cell=conventional occupancy="_JSON {\"0\": {\"Al\": 1}, \"1\": {\"Al\": 1}, \"2\": {\"N\": 1}, \"3\": {\"N\": 1}}" energy=-29.673717498779297 free_energy=-29.673717498779297 stress="-0.002225336851552129 -1.4123995697445935e-06 4.2500811758827695e-09 -1.4123995697445935e-06 -0.0022275177761912346 -7.213194663791e-08 4.2500811758827695e-09 -7.213194663791e-08 -0.0054536559619009495" pbc="T T T"
Al       1.56429556       0.90314476       2.50490041        0      -0.00003522       0.00002077       0.00553141
Al      -0.00000156       1.80629224       5.01337791        1       0.00003310      -0.00001898       0.00552486
N        1.56429556       0.90314476       4.41849749        2      -0.00003478       0.00001926      -0.00553077
N       -0.00000156       1.80629224       1.91001999        3       0.00003685      -0.00002079      -0.00552519
