13
Lattice="7.26870274 0.0 0.0 3.634351370000001 6.294881225397555 0.0 3.634351370000001 2.0982937417991856 5.934870934989993" Properties=species:S:1:pos:R:3:spacegroup_kinds:I:1:forces:R:3 spacegroup="P 1" unit_cell=conventional occupancy="_JSON {\"0\": {\"Li\": 1}, \"1\": {\"Li\": 1}, \"2\": {\"Li\": 1}, \"3\": {\"Li\": 1}, \"4\": {\"Li\": 1}, \"5\": {\"Li\": 1}, \"6\": {\"P\": 1}, \"7\": {\"S\": 1}, \"8\": {\"S\": 1}, \"9\": {\"S\": 1}, \"10\": {\"S\": 1}, \"11\": {\"S\": 1}, \"12\": {\"Cl\": 1}}" energy=-53.3634147644043 free_energy=-53.3634147644043 stress="-0.0007942296215333045 -2.4226437744800933e-07 -1.4965031880365132e-07 -2.4226437744800933e-07 -0.0007939437055028975 -1.12088955006584e-07 -1.4965031880365132e-07 -1.12088955006584e-07 -0.0007939279894344509" pbc="T T T"
Li       9.25387995       7.24703237       3.10460814        0       0.00422613      -0.00243479       0.00344809
Li      12.55222827       5.34273008       5.79769826        1      -0.00421122       0.00243328      -0.00344135
Li       9.25387995       5.34273008       5.79769826        2       0.00422513       0.00243881      -0.00344694
Li      12.55222827       7.24703237       3.10460814        3      -0.00421176      -0.00243063       0.00344096
Li      10.90305411       4.39057894       3.10460814        4       0.00000252       0.00487660       0.00344852
Li      10.90305411       8.19918351       5.79769826        5       0.00000197      -0.00486371      -0.00344161
P        7.26870274       4.19658748       2.96743547        6       0.00008547       0.00004614       0.00003573
S        7.26870637       6.13578650       2.28182731        7      -0.00001815      -0.01090950       0.00384778
S        8.94810016       3.22699113       2.28182731        8      -0.00945914       0.00544043       0.00384755
S        5.58931258       3.22699113       2.28182731        9       0.00937824       0.00541302       0.00383046
S        7.26870637       4.19658958       5.02426588       10      -0.00001910      -0.00000980      -0.01156971
S       10.90305411       6.29488123       4.45115320       11      -0.00000126      -0.00000090      -0.00000063
Cl       0.00000000       0.00000000       0.00000000       12       0.00000118       0.00000105       0.00000121
