32
Lattice="6.17176593 0.0 0.0 0.0 8.01859859 0.0 0.0 0.0 13.03281824" Properties=species:S:1:pos:R:3:spacegroup_kinds:I:1:momenta:R:3:forces:R:3 spacegroup="P 1" unit_cell=conventional occupancy="_JSON {\"0\": {\"Li\": 1}, \"1\": {\"Li\": 1}, \"2\": {\"Li\": 1}, \"3\": {\"Li\": 1}, \"4\": {\"Li\": 1}, \"5\": {\"Li\": 1}, \"6\": {\"Li\": 1}, \"7\": {\"Li\": 1}, \"8\": {\"Li\": 1}, \"9\": {\"Li\": 1}, \"10\": {\"Li\": 1}, \"11\": {\"Li\": 1}, \"12\": {\"P\": 1}, \"13\": {\"P\": 1}, \"14\": {\"P\": 1}, \"15\": {\"P\": 1}, \"16\": {\"S\": 1}, \"17\": {\"S\": 1}, \"18\": {\"S\": 1}, \"19\": {\"S\": 1}, \"20\": {\"S\": 1}, \"21\": {\"S\": 1}, \"22\": {\"S\": 1}, \"23\": {\"S\": 1}, \"24\": {\"S\": 1}, \"25\": {\"S\": 1}, \"26\": {\"S\": 1}, \"27\": {\"S\": 1}, \"28\": {\"S\": 1}, \"29\": {\"S\": 1}, \"30\": {\"S\": 1}, \"31\": {\"S\": 1}}" energy=-139.18331909179688 free_energy=-139.18331909179688 stress="-0.006709984969347715 0.0020414250902831554 -0.003284405916929245 0.0020414250902831554 -0.0050465697422623634 -0.0033829493913799524 -0.003284405916929245 -0.0033829493913799524 -0.010664880275726318" pbc="T T T"
Li       2.69484313       0.19876683       4.09317861        0      -0.42147921      -0.21279860       0.15668702      -0.21166165       0.04827926       0.23383069
Li       3.73802456       7.41028000       8.59316164        1       0.08323525       0.32220680      -0.19846727      -0.28082404       0.41904393       0.32205188
Li       5.27442782       7.76268034       2.20910638        2      -0.05899406      -0.54476482      -0.59917157       0.07705906       0.09724707       0.02659861
Li       0.51974081       0.68345463      10.72847174        3       0.01001902      -0.27078001      -0.06461520      -0.22201148      -0.35406035      -0.18959591
Li       4.13367086       4.03831927       8.72076151        4       0.75352211       0.01676284      -1.00607447      -0.27208498       0.21597093      -0.10151213
Li       2.56699610       3.81481659       4.16316158        5      -0.16276458       0.39002611      -0.42716747      -0.00233844      -0.10758404       0.31591353
Li       0.82843237       3.89015627      10.81305738        6      -0.64384684       0.20326112       0.24585685      -0.18979535       0.16862658       0.04174231
Li       5.29819796       4.26676238       2.04602080        7       0.54999322       0.41663541      -0.35848282       0.34377676       0.13545498       0.36665663
Li       2.58252696      -0.06864587      -0.47257055        8      -0.02918612      -0.26487614      -0.54445525      -0.07130649      -0.21163902       0.37383309
Li      -0.27259722       0.13496886       6.73274265        9       0.35722197      -0.38734877      -0.44052105       0.27765268       0.29779774       0.49068260
Li       3.36566607       3.58403810       0.26637100       10       0.31727631       0.46951375      -0.92212118      -0.23503664       0.45331979      -0.52458352
Li       0.45219041       4.33832476       6.48138478       11       0.46921436      -0.39355713       0.19393375       0.07764435      -0.15414187      -0.06065850
P        0.78015572       2.08568212       1.13278683       12       1.05321018       0.99446172      -1.06645860      -0.20349179      -0.36168617       0.76015937
P        5.10340558       6.12766925      11.84970625       13       0.74153628       0.69900142      -0.94713534      -0.30297220      -0.19790003       0.54015636
P        4.11663163       5.94691949       5.45993903       14      -0.11759387       1.64284529       0.74435473       0.64458072       0.20467131      -0.48669234
P        2.21799322       1.87132238       7.66629096       15       0.61722177      -0.39944045      -0.27538219      -0.29948193       0.39707971      -0.00635810
S        4.88878324       2.11784875       1.12831219       16      -0.81916084      -1.21012480       0.69408555       0.45059043      -0.62433499       0.57423753
S        0.90299376       6.11256545      11.72103059       17       0.06849350      -0.42889419       1.00739125       1.47350645       0.51226979      -0.03835425
S        2.08945422       5.94556509       5.43244023       18       0.08935846       1.11989393       1.13012944       0.22468716       0.41603294      -0.60186738
S        4.24605470       1.89377835       7.85709692       19      -0.87761535      -0.06658987       0.47889588       0.14531046      -0.57150424       0.11674170
S        1.49491564       2.18012929      12.29239415       20      -0.27955816      -0.48389865       0.28343593       0.64266098      -0.14730969      -1.24015510
S        4.39844784       6.02671834       0.79019989       21       0.92117963      -1.43042961       0.23641051      -0.36825788       0.16416359      -0.24902114
S        4.87363917       5.90469131       7.35240985       22      -0.67331939      -0.89681128       0.44397360       0.41132939      -0.20643419       0.53315878
S        1.64846857       2.00465423       5.67204820       23       0.32366566      -0.30417973      -0.37222339      -0.24765095      -0.15258086       0.24873221
S        1.46038002       0.28051959       1.86086769       24      -0.83778132       0.61906899      -0.93862684      -0.02404881       0.13178469       0.12048844
S        4.35726673       7.77493864      10.95018565       25      -0.91680486       0.33307252       1.26359662      -0.24870738       0.64336962      -0.17347632
S        5.07702109       7.72337209       4.73434158       26      -0.35520639       0.11498126       0.16752934      -1.21006238      -0.72671479      -0.93128562
S        1.39731709       0.11689498       8.47263051       27       0.30174477       1.49417560       1.16335614       0.29832661       0.68439627      -0.08174372
S        4.53299784       4.41485311      10.97111528       28       0.58278124      -0.37542044       1.32714768      -0.54866970      -0.85334551       0.07083990
S        1.60839392       3.71825205       2.01058817       29       0.83940756       0.04978397      -0.50868657      -0.21395078       0.36051649       0.19189876
S        1.51555093       3.65642593       8.58010622       30      -0.37846697      -1.27290416       0.49969384       0.26914412      -0.69954002      -0.39993873
S        4.93374834       4.29449807       4.56302407       31      -1.50730330       0.05712801      -1.36688890      -0.18391612       0.01875079      -0.24247955
