32
Lattice="6.17176593 0.0 0.0 0.0 8.01859859 0.0 0.0 0.0 13.03281824" Properties=species:S:1:pos:R:3:spacegroup_kinds:I:1:momenta:R:3:forces:R:3 spacegroup="P 1" unit_cell=conventional occupancy="_JSON {\"0\": {\"Li\": 1}, \"1\": {\"Li\": 1}, \"2\": {\"Li\": 1}, \"3\": {\"Li\": 1}, \"4\": {\"Li\": 1}, \"5\": {\"Li\": 1}, \"6\": {\"Li\": 1}, \"7\": {\"Li\": 1}, \"8\": {\"Li\": 1}, \"9\": {\"Li\": 1}, \"10\": {\"Li\": 1}, \"11\": {\"Li\": 1}, \"12\": {\"P\": 1}, \"13\": {\"P\": 1}, \"14\": {\"P\": 1}, \"15\": {\"P\": 1}, \"16\": {\"S\": 1}, \"17\": {\"S\": 1}, \"18\": {\"S\": 1}, \"19\": {\"S\": 1}, \"20\": {\"S\": 1}, \"21\": {\"S\": 1}, \"22\": {\"S\": 1}, \"23\": {\"S\": 1}, \"24\": {\"S\": 1}, \"25\": {\"S\": 1}, \"26\": {\"S\": 1}, \"27\": {\"S\": 1}, \"28\": {\"S\": 1}, \"29\": {\"S\": 1}, \"30\": {\"S\": 1}, \"31\": {\"S\": 1}}" energy=-140.31869506835938 free_energy=-140.31869506835938 stress="-0.0071706282906234264 5.792562873807583e-09 -2.1948128037241332e-10 5.792562873807583e-09 -0.008259410038590431 -9.78903180737234e-09 -2.1948128037241332e-10 -9.78903180737234e-09 -0.005266312509775162" pbc="T T T"
Li       2.40329652       0.26860172       4.33400832        0       0.00000000       0.00000000       0.00000000      -0.02603559       0.00549144      -0.00432156
Li       3.76846941       7.74999687       8.69880992        1       0.00000000       0.00000000       0.00000000       0.02603594      -0.00549112       0.00432270
Li       5.48917948       7.74999687       2.18240080        2       0.00000000       0.00000000       0.00000000      -0.02603615      -0.00549060       0.00432310
Li       0.68258645       0.26860172      10.85041744        3       0.00000000       0.00000000       0.00000000       0.02603485       0.00549188      -0.00431880
Li       3.76846941       4.27790102       8.69880992        4       0.00000000       0.00000000       0.00000000       0.02603693       0.00549166       0.00432288
Li       2.40329652       3.74069757       4.33400832        5       0.00000000       0.00000000       0.00000000      -0.02603601      -0.00549195      -0.00432170
Li       0.68258645       3.74069757      10.85041744        6       0.00000000       0.00000000       0.00000000       0.02603588      -0.00549233      -0.00431959
Li       5.48917948       4.27790102       2.18240080        7       0.00000000       0.00000000       0.00000000      -0.02603606       0.00549093       0.00432216
Li       3.08588297       0.00000000       0.00000000        8       0.00000000       0.00000000       0.00000000      -0.00000069      -0.00000201       0.00000045
Li       0.00000000       0.00000000       6.51640912        9       0.00000000       0.00000000       0.00000000      -0.00000042      -0.00000037       0.00000052
Li       3.08588297       4.00929929       0.00000000       10       0.00000000       0.00000000       0.00000000      -0.00000029       0.00000048      -0.00000090
Li       0.00000000       4.00929929       6.51640912       11       0.00000000       0.00000000       0.00000000      -0.00000012       0.00000136       0.00000145
P        0.94051010       2.00464965       1.16601784       12       0.00000000       0.00000000       0.00000000      -0.02067132       0.00000000       0.02376118
P        5.23125583       6.01394894      11.86680040       13       0.00000000       0.00000000       0.00000000       0.02066617      -0.00000076      -0.02375871
P        4.02639307       6.01394894       5.35039128       14       0.00000000       0.00000000       0.00000000      -0.02066758       0.00000063      -0.02375682
P        2.14537286       2.00464965       7.68242696       15       0.00000000       0.00000000       0.00000000       0.02066812      -0.00000082       0.02375651
S        5.08970823       2.00464965       1.30575389       16       0.00000000       0.00000000       0.00000000      -0.25450554       0.00000126       0.01679025
S        1.08205770       6.01394894      11.72706435       17       0.00000000       0.00000000       0.00000000       0.25450802      -0.00000124      -0.01679215
S        2.00382526       6.01394894       5.21065523       18       0.00000000       0.00000000       0.00000000      -0.25450522       0.00000056      -0.01679155
S        4.16794067       2.00464965       7.82216301       19       0.00000000       0.00000000       0.00000000       0.25450146       0.00000065       0.01678985
S        1.68132889       2.00464965      12.25955363       20       0.00000000       0.00000000       0.00000000       0.10912223       0.00000038      -0.16719586
S        4.49043704       6.01394894       0.77326461       21       0.00000000       0.00000000       0.00000000      -0.10912038       0.00000062       0.16718099
S        4.76721186       6.01394894       7.28967373       22       0.00000000       0.00000000       0.00000000       0.10912067      -0.00000027       0.16717920
S        1.40455407       2.00464965       5.74314451       23       0.00000000       0.00000000       0.00000000      -0.10911945      -0.00000012      -0.16718090
S        1.67233151       0.29287049       2.00524453       24       0.00000000       0.00000000       0.00000000       0.13957815      -0.21272597       0.08709884
S        4.49943442       7.72572810      11.02757371       25       0.00000000       0.00000000       0.00000000      -0.13957590       0.21272506      -0.08709250
S        4.75821447       7.72572810       4.51116459       26       0.00000000       0.00000000       0.00000000       0.13957411       0.21272436      -0.08709283
S        1.41355146       0.29287049       8.52165365       27       0.00000000       0.00000000       0.00000000      -0.13957539      -0.21272002       0.08709157
S        4.49943442       4.30216979      11.02757371       28       0.00000000       0.00000000       0.00000000      -0.13957623      -0.21272521      -0.08709452
S        1.67233151       3.71642880       2.00524453       29       0.00000000       0.00000000       0.00000000       0.13957900       0.21272686       0.08709833
S        1.41355146       3.71642880       8.52165365       30       0.00000000       0.00000000       0.00000000      -0.13957581       0.21272020       0.08709123
S        4.75821447       4.30216979       4.51116459       31       0.00000000       0.00000000       0.00000000       0.13957652      -0.21272561      -0.08709264
32
Lattice="6.17176593 0.0 0.0 0.0 8.01859859 0.0 0.0 0.0 13.03281824" Properties=species:S:1:pos:R:3:spacegroup_kinds:I:1:momenta:R:3:forces:R:3 spacegroup="P 1" unit_cell=conventional occupancy="_JSON {\"0\": {\"Li\": 1}, \"1\": {\"Li\": 1}, \"2\": {\"Li\": 1}, \"3\": {\"Li\": 1}, \"4\": {\"Li\": 1}, \"5\": {\"Li\": 1}, \"6\": {\"Li\": 1}, \"7\": {\"Li\": 1}, \"8\": {\"Li\": 1}, \"9\": {\"Li\": 1}, \"10\": {\"Li\": 1}, \"11\": {\"Li\": 1}, \"12\": {\"P\": 1}, \"13\": {\"P\": 1}, \"14\": {\"P\": 1}, \"15\": {\"P\": 1}, \"16\": {\"S\": 1}, \"17\": {\"S\": 1}, \"18\": {\"S\": 1}, \"19\": {\"S\": 1}, \"20\": {\"S\": 1}, \"21\": {\"S\": 1}, \"22\": {\"S\": 1}, \"23\": {\"S\": 1}, \"24\": {\"S\": 1}, \"25\": {\"S\": 1}, \"26\": {\"S\": 1}, \"27\": {\"S\": 1}, \"28\": {\"S\": 1}, \"29\": {\"S\": 1}, \"30\": {\"S\": 1}, \"31\": {\"S\": 1}}" energy=-140.281982421875 free_energy=-140.281982421875 stress="-0.006527455523610115 7.699741399846971e-05 0.0002537250693421811 7.699741399846971e-05 -0.00692067202180624 0.0008247376536019146 0.0002537250693421811 0.0008247376536019146 -0.004189124796539545" pbc="T T T"
Li       2.37447255       0.26037450       4.34953713        0       0.05483803      -0.11948556       0.14778665       0.05521325       0.03870774      -0.05637367
Li       3.76194230       7.74524162       8.72635612        1       0.09553246      -0.24897880       0.31704531       0.04076072      -0.00332368      -0.07236508
Li       5.49562763       7.77829398       2.17286067        2       0.14770869      -0.14594394      -0.10392284      -0.04285247      -0.06787498       0.01071582
Li       0.62283260       0.30838892      10.84687046        3      -0.42165095       0.34582975       0.01140974       0.16306752      -0.02250674      -0.01177759
Li       3.73354303       4.28548778       8.67707102        4      -0.22861787      -0.00540082      -0.08704913       0.07186601      -0.00555097       0.03570664
Li       2.40839028       3.74421814       4.32489269        5      -0.10305682      -0.21631385       0.01740478      -0.03641293      -0.02201420       0.01831613
Li       0.72434928       3.75006630      10.88897460        6       0.33397102       0.05395313       0.39691174      -0.07357980       0.04536833      -0.08870556
Li       5.45946001       4.30354778       2.20769774        7      -0.11232970       0.29799575       0.25040355       0.06381350      -0.04244675      -0.05556899
Li       3.09629248      -0.01802506       0.02053628        8       0.23337714      -0.37216075       0.26818029      -0.02672991      -0.00804743      -0.00656692
Li       0.00857035       0.04790840       6.50983360        9       0.09462005       0.30728005      -0.01045856      -0.10566116      -0.07242733       0.00114956
Li       3.07699074       3.97254872       0.04627018       10      -0.06710527      -0.51631084       0.41907392       0.13307413       0.08126056      -0.10672440
Li       0.00117428       4.01395737       6.52309435       11       0.18293573      -0.08038317      -0.16730617      -0.01731466       0.01271246       0.00805856
P        0.93628258       2.00604077       1.15160078       12       0.19301079       0.15004663      -0.64331907       0.13694116      -0.12759069       0.39113665
P        5.23938761       6.02037422      11.85684989       13       0.54807441      -0.10446676      -0.15698004      -0.07736558      -0.57272297       0.24639106
P        4.02273696       6.00732475       5.34457185       14      -0.22020593       0.38643878      -0.27528602       0.30358016       0.18501596       0.15240158
P        2.14217908       1.99680650       7.67901266       15      -0.32247575       0.18838570      -0.44187522       0.11807308       0.22198439       0.07337954
S        5.09065535       2.01176253       1.30200925       16      -0.15816346       0.33800670      -0.19736868      -0.30190447       0.02040329       0.00721931
S        1.09844920       6.02649842      11.74499919       17      -0.01238795       0.72576605       0.63468380       0.04276125       0.00484299      -0.07414369
S        2.01202233       6.03148410       5.21055398       18       0.07851119       0.52852393       0.56507831      -0.40944624      -0.11041889      -0.02292305
S        4.16667941       2.00463310       7.82170267       19      -0.07390590      -0.09723410      -0.15591291       0.20485142      -0.01969675       0.00695509
S        1.68066981       2.00206963      12.26022238       20      -0.33947865       0.06595663      -0.03032982       0.16327986      -0.04486028      -0.27039081
S        4.49007554       6.01728848       0.79020729       21      -0.32793876       0.23798526       0.37112969      -0.01631914       0.01567860      -0.17818484
S        4.76776928       6.00462629       7.30013762       22       0.07945150      -0.07636769      -0.07733301       0.04918183       0.05306734      -0.04916368
S        1.39428723       2.00582678       5.74534996       23      -0.46352077      -0.16737171       0.69081841      -0.08135782       0.03455692      -0.25133115
S        1.67556976       0.27654716       2.00471159       24      -0.01639594      -0.57760206      -0.39881335       0.02727848       0.08542237      -0.03630465
S        4.50831503       7.71884024      11.02791227       25       0.37253062       0.02539914      -0.22113989      -0.29896337       0.38799977      -0.13155624
S        4.77462670       7.71499704       4.49670612       26       0.74892090      -0.36417697      -0.60451211       0.03814476       0.15171237       0.00667449
S        1.41768091       0.29625576       8.51884103       27       0.15744386       0.09326073       0.21993548      -0.21842858      -0.35665476       0.18543793
S        4.47303543       4.28902238      11.01292822       28      -0.85737240      -0.73379540      -0.66992777       0.15179655       0.17073879       0.13880835
S        1.67569261       3.71964623       2.00689503       29       0.22435297       0.17216381       0.34446747       0.00505621       0.08865921       0.05815209
S        1.40322811       3.71405443       8.51439847       30      -0.29286014      -0.12897654      -0.40877420      -0.14033349       0.13719760       0.11024821
S        4.76885423       4.30069924       4.50954096       31       0.47218684       0.03797692      -0.00402035       0.07792965      -0.25919217      -0.03867039
32
Lattice="6.17176593 0.0 0.0 0.0 8.01859859 0.0 0.0 0.0 13.03281824" Properties=species:S:1:pos:R:3:spacegroup_kinds:I:1:momenta:R:3:forces:R:3 spacegroup="P 1" unit_cell=conventional occupancy="_JSON {\"0\": {\"Li\": 1}, \"1\": {\"Li\": 1}, \"2\": {\"Li\": 1}, \"3\": {\"Li\": 1}, \"4\": {\"Li\": 1}, \"5\": {\"Li\": 1}, \"6\": {\"Li\": 1}, \"7\": {\"Li\": 1}, \"8\": {\"Li\": 1}, \"9\": {\"Li\": 1}, \"10\": {\"Li\": 1}, \"11\": {\"Li\": 1}, \"12\": {\"P\": 1}, \"13\": {\"P\": 1}, \"14\": {\"P\": 1}, \"15\": {\"P\": 1}, \"16\": {\"S\": 1}, \"17\": {\"S\": 1}, \"18\": {\"S\": 1}, \"19\": {\"S\": 1}, \"20\": {\"S\": 1}, \"21\": {\"S\": 1}, \"22\": {\"S\": 1}, \"23\": {\"S\": 1}, \"24\": {\"S\": 1}, \"25\": {\"S\": 1}, \"26\": {\"S\": 1}, \"27\": {\"S\": 1}, \"28\": {\"S\": 1}, \"29\": {\"S\": 1}, \"30\": {\"S\": 1}, \"31\": {\"S\": 1}}" energy=-140.1226043701172 free_energy=-140.1226043701172 stress="-0.007403208874166012 0.00013649379252456129 6.800123810535297e-05 0.00013649379252456129 -0.005667116958647966 0.0001739139115670696 6.800123810535297e-05 0.0001739139115670696 -0.0045789508149027824" pbc="T T T"
Li       2.41632887       0.25843122       4.40120138        0       0.49348831      -0.18723273       0.31364681       0.03177883       0.05200890      -0.17353664
Li       3.80847117       7.70852282       8.72705123        1       0.34547124      -0.54297577      -0.24602217      -0.09957797       0.10726886      -0.06416770
Li       5.56860159       7.77495171       2.15237715        2       0.31451880      -0.08058542      -0.32304540      -0.25930256      -0.08458918       0.00113351
Li       0.53934852       0.34868095      10.83416712        3      -0.20384740       0.22711910      -0.02876357       0.42067719       0.01442772      -0.04232792
Li       3.69845818       4.29077137       8.68767070        4      -0.25750776       0.06656951       0.06484657       0.12297545      -0.02285434      -0.01105167
Li       2.42270780       3.65363273       4.31941163        5       0.13959053      -0.80108134       0.04728879       0.00742839       0.12207530       0.03876641
Li       0.74397238       3.79619126      10.90966884        6       0.05374248       0.40732006       0.09803678      -0.07014266       0.01411193      -0.11075499
Li       5.42344187       4.32680229       2.23611889        7      -0.14151849      -0.20125725       0.06336052       0.13236403      -0.11110581      -0.11690917
Li       3.09966654      -0.06301127       0.03144300        8       0.01498405      -0.40301198       0.08501915      -0.07261406       0.05425910      -0.05557640
Li      -0.00833365       0.09880882       6.47938594        9      -0.23709597       0.39462974      -0.22034839      -0.11198868      -0.16315055       0.17835361
Li       3.10595328       3.90969024       0.13316335       10       0.21893767      -0.58066549       0.47454196       0.24367389       0.08280933      -0.26324522
Li       0.05466701       4.01308502       6.46939328       11       0.48699533      -0.00340081      -0.21226945      -0.08335586       0.11317642       0.09756710
P        0.94161345       2.02239798       1.14138746       12      -0.20868251       0.02121864      -0.05365577      -0.05933704      -0.21895584       0.21957766
P        5.23594580       6.01381382      11.86390907       13      -0.57961138       0.01365340       0.64564005      -0.24596596      -0.40254968       0.07972094
P        4.03190596       6.00838739       5.33491236       14       0.44455014      -0.36257238      -0.83796039       0.30671245       0.18478101       0.43581873
P        2.13804295       2.00989833       7.65714118       15       0.34091754       0.33291690      -0.61483397       0.29661548      -0.56015724       0.97782564
S        5.08421605       2.02081123       1.29156266       16       0.21815110      -0.22128195      -0.28268964      -0.15022251       0.02866813       0.04082903
S        1.09005320       6.05594632      11.77149392       17      -0.42554405       0.92564854       0.43434684       0.04175656      -0.06584442      -0.09312764
S        2.01742980       6.05225130       5.21083744       18      -0.11143020       0.33928985      -0.61949113      -0.29045832      -0.26767260      -0.08381060
S        4.15459151       1.98689523       7.80831791       19      -0.50103736      -0.34349725      -0.63037248       0.36350685       0.13157979      -0.03970073
S        1.67008154       2.00267380      12.23403908       20      -0.11377634      -0.04167731      -1.13095136       0.16087143       0.01759654       0.01085067
S        4.47705294       6.01242590       0.80081365       21      -0.36040625      -0.14544180       0.11286924       0.01194738       0.04023824      -0.25695267
S        4.77083822       6.01432449       7.30714188       22       0.32856463       0.50474072       0.92847986       0.04767908      -0.07138320      -0.30683759
S        1.39011242       1.98944695       5.77793805       23       0.08633831      -0.03757080      -0.10750043      -0.27332473       0.07375211      -1.11338735
S        1.66082453       0.27528504       1.98666013       24      -0.74532676       0.47533215       0.06528968       0.23267329       0.21660551       0.05988662
S        4.51853692       7.74063523      11.02339450       25      -0.26277074       1.04079693       0.28216157      -0.47188526      -0.01864820       0.09466697
S        4.80932805       7.70347059       4.47912334       26       0.97926995      -0.15983375      -0.31489295      -0.02191930       0.13724262      -0.04176122
S        1.43494259       0.29552882       8.54417336       27       0.84722125       0.15681918       0.81351625      -0.17264849      -0.14972039      -0.04948338
S        4.46427511       4.27141998      11.01052739       28       0.20804611      -0.21018110       0.43504984       0.25731349       0.40259665       0.27236673
S        1.66650353       3.72981440       2.02654627       29      -0.55423143       0.63037397       0.51115884      -0.04609501       0.03894687       0.05513085
S        1.37605152       3.68307409       8.49361118       30      -1.15751369      -0.57174184      -0.38240322      -0.23071703       0.57419974       0.28220469
S        4.78224820       4.29378093       4.51562027       31       0.33951283      -0.64241971       0.62994757      -0.01841840      -0.26971331      -0.02206817
32
Lattice="6.17176593 0.0 0.0 0.0 8.01859859 0.0 0.0 0.0 13.03281824" Properties=species:S:1:pos:R:3:spacegroup_kinds:I:1:momenta:R:3:forces:R:3 spacegroup="P 1" unit_cell=conventional occupancy="_JSON {\"0\": {\"Li\": 1}, \"1\": {\"Li\": 1}, \"2\": {\"Li\": 1}, \"3\": {\"Li\": 1}, \"4\": {\"Li\": 1}, \"5\": {\"Li\": 1}, \"6\": {\"Li\": 1}, \"7\": {\"Li\": 1}, \"8\": {\"Li\": 1}, \"9\": {\"Li\": 1}, \"10\": {\"Li\": 1}, \"11\": {\"Li\": 1}, \"12\": {\"P\": 1}, \"13\": {\"P\": 1}, \"14\": {\"P\": 1}, \"15\": {\"P\": 1}, \"16\": {\"S\": 1}, \"17\": {\"S\": 1}, \"18\": {\"S\": 1}, \"19\": {\"S\": 1}, \"20\": {\"S\": 1}, \"21\": {\"S\": 1}, \"22\": {\"S\": 1}, \"23\": {\"S\": 1}, \"24\": {\"S\": 1}, \"25\": {\"S\": 1}, \"26\": {\"S\": 1}, \"27\": {\"S\": 1}, \"28\": {\"S\": 1}, \"29\": {\"S\": 1}, \"30\": {\"S\": 1}, \"31\": {\"S\": 1}}" energy=-139.99049377441406 free_energy=-139.99049377441406 stress="-0.00674985209479928 -0.0004672287905123085 0.0004133738693781197 -0.0004672287905123085 -0.005856373347342014 0.000357739714672789 0.0004133738693781197 0.000357739714672789 -0.004063455853611231" pbc="T T T"
Li       2.47181990       0.21326306       4.46412054        0       0.21340089      -0.21776434       0.25405672      -0.04883906       0.21564177      -0.22812572
Li       3.81717283       7.60984133       8.69477212        1      -0.26598830      -0.53335445      -0.11024103      -0.17907858       0.37991112       0.15694745
Li       5.57591961       7.74218125       2.08372713        2      -0.26378683      -0.12688932      -0.41833429      -0.23706637      -0.05244693       0.08392143
Li       0.55444465       0.37243556      10.81596639        3       0.41566612      -0.03271424      -0.09844908       0.29873228      -0.03391941       0.00116353
Li       3.66858043       4.33546189       8.69469584        4      -0.01956478       0.36601730       0.11555357       0.10839337      -0.11953159      -0.05024632
Li       2.43434631       3.57120272       4.30895404        5      -0.08936566      -0.31696995      -0.09687420       0.10394201       0.26866734      -0.01757689
Li       0.77299686       3.87619970      10.93241917        6       0.53960062       0.43617158       0.26258880      -0.03785157      -0.12387197      -0.11519178
Li       5.40200782       4.30128858       2.24961229        7      -0.18101776      -0.31096568      -0.02600926       0.15623592      -0.08850098      -0.12630320
Li       3.05790844      -0.14417479       0.04603159        8      -0.57310056      -0.26920873       0.21371433      -0.13571806       0.13992739      -0.16326407
Li      -0.06927435       0.16143386       6.49779199        9      -0.56305344       0.27552879       0.36462181      -0.10183866      -0.13836144       0.19454408
Li       3.18088738       3.86546010       0.18764991       10       0.43912002      -0.11482719       0.11255403       0.14402914      -0.01728927      -0.24602363
Li       0.16310327       4.00206661       6.39211222       11       0.63854053      -0.01655706      -0.22330119      -0.16678332       0.28801554       0.17778893
P        0.94044515       2.00706264       1.14500714       12      -0.19367280      -0.15934641      -0.00401303       0.23575591       0.15269682      -0.07106329
P        5.19862134       6.00074299      11.88456013       13      -0.90404141      -0.18357218       0.62226203       0.12326795       0.35905662      -0.45686477
P        4.06169369       6.00551735       5.31771111       14       1.05230743      -0.23598260       0.39372671      -0.19409142      -0.03767481       0.57427400
P        2.13022551       2.00681105       7.65366705       15       0.01636593      -0.03880388       0.49112968       0.49691159      -0.28791332       1.04474652
S        5.09790742       1.98910195       1.30243581       16       0.23653433      -1.38561345       0.77109589      -0.45136660       0.11359961       0.02455544
S        1.06102080       6.09255199      11.76763385       17      -0.54046223       0.70134499       0.06647061       0.05085513      -0.09448207      -0.01463812
S        2.01261059       6.06334956       5.20344199       18      -0.43664756      -0.07336354      -0.49085176       0.20174299      -0.43852821      -0.06760317
S        4.15415731       1.98347573       7.79556503       19       0.66189158       0.49702771      -0.37869357       0.21329123       0.19201082      -0.03025372
S        1.66720504       2.00600256      12.21270136       20       0.07776697       0.62345957      -0.42145046       0.10718655       0.09978089       0.39049643
S        4.47641566       6.01992118       0.79723289       21       0.23418136       0.17454395       0.04411701      -0.14195216      -0.15962857       0.12992889
S        4.77279535       6.03402896       7.30275480       22      -0.05731037       0.43664900      -1.18080408       0.16110244      -0.25010434      -0.51369840
S        1.39129652       2.01637976       5.76420432       23       0.47671974       0.98415133      -0.62935389      -0.24362588      -0.21602707      -1.02463973
S        1.65361563       0.27862378       1.99200533       24      -0.09340713      -0.02431032      -0.16259345       0.37383416       0.06547695       0.16691469
S        4.51491506       7.77653680      11.03998232       25      -0.40644443       0.93115348       0.38526517      -0.44857094      -0.43624276       0.17058696
S        4.84328954       7.68146761       4.45241669       26       1.08167866      -0.98906176      -0.83194933       0.02627776       0.18418264      -0.12912093
S        1.45798443       0.31235084       8.55988331       27      -0.23304572       0.08933853       0.02379953      -0.30910915      -0.35115516      -0.12620535
S        4.47778772       4.27321397      11.02158451       28       0.59734700       0.24951691       0.36633105       0.08990597       0.22500920       0.19102077
S        1.64269893       3.73980306       2.04793481       29      -0.83596330      -0.23097607       0.36386074      -0.02875757      -0.15614338      -0.13095552
S        1.32767361       3.67417934       8.49712032       30      -1.16249240      -0.10732243      -0.13531020      -0.04406348       0.44825697       0.18398106
S        4.79843493       4.26611890       4.52404731       31       0.13824341      -0.39729953       0.35708120      -0.12275156      -0.13041222       0.02090449
32
Lattice="6.17176593 0.0 0.0 0.0 8.01859859 0.0 0.0 0.0 13.03281824" Properties=species:S:1:pos:R:3:spacegroup_kinds:I:1:momenta:R:3:forces:R:3 spacegroup="P 1" unit_cell=conventional occupancy="_JSON {\"0\": {\"Li\": 1}, \"1\": {\"Li\": 1}, \"2\": {\"Li\": 1}, \"3\": {\"Li\": 1}, \"4\": {\"Li\": 1}, \"5\": {\"Li\": 1}, \"6\": {\"Li\": 1}, \"7\": {\"Li\": 1}, \"8\": {\"Li\": 1}, \"9\": {\"Li\": 1}, \"10\": {\"Li\": 1}, \"11\": {\"Li\": 1}, \"12\": {\"P\": 1}, \"13\": {\"P\": 1}, \"14\": {\"P\": 1}, \"15\": {\"P\": 1}, \"16\": {\"S\": 1}, \"17\": {\"S\": 1}, \"18\": {\"S\": 1}, \"19\": {\"S\": 1}, \"20\": {\"S\": 1}, \"21\": {\"S\": 1}, \"22\": {\"S\": 1}, \"23\": {\"S\": 1}, \"24\": {\"S\": 1}, \"25\": {\"S\": 1}, \"26\": {\"S\": 1}, \"27\": {\"S\": 1}, \"28\": {\"S\": 1}, \"29\": {\"S\": 1}, \"30\": {\"S\": 1}, \"31\": {\"S\": 1}}" energy=-139.95042419433594 free_energy=-139.95042419433594 stress="-0.0023545012809336185 -0.00020291998225729913 0.0005013275658711791 -0.00020291998225729913 -0.005050596781075001 -0.0012064619222655892 0.0005013275658711791 -0.0012064619222655892 -0.005903137382119894" pbc="T T T"
Li       2.50090817       0.24323866       4.45129756        0       0.32277611       0.35210318      -0.13977774      -0.04149044       0.09593248      -0.18441428
Li       3.79301088       7.54803571       8.67895377        1      -0.23566442      -0.18215510       0.12514601      -0.20540528       0.50694251       0.30477619
Li       5.52675875       7.71273683       2.04400547        2      -0.21870503       0.05387546      -0.15395052       0.02957605      -0.02332107       0.17510496
Li       0.64289065       0.34401194      10.79612122        3       0.51807821      -0.00660208       0.00659783      -0.02759756      -0.04092649       0.16306709
Li       3.66957524       4.37142000       8.68044485        4       0.00687266       0.09977485      -0.32247326       0.06308185      -0.19612890      -0.01143009
Li       2.42229043       3.55959855       4.28136170        5       0.03153984       0.19183754       0.00693158       0.22630231       0.33531311       0.00266687
Li       0.84618683       3.92067852      10.92136931        6       0.16369220       0.18671468      -0.33351843      -0.10164564      -0.14226283      -0.09274065
Li       5.34165028       4.20453715       2.23504742        7      -0.53347065      -0.61511160       0.11067114       0.17689371       0.06751557      -0.03892751
Li       2.93256152      -0.20941119       0.03333552        8      -0.77546754      -0.34558034      -0.47959677      -0.08302710       0.09914465      -0.29250681
Li      -0.18506981       0.17846644       6.54733581        9      -0.78059031       0.07638019       0.28302045       0.02317311       0.05859962       0.06170932
Li       3.25963925       3.84173011       0.18733493       10       0.37452283      -0.02127141       0.01746006      -0.02506851      -0.11417243      -0.18037137
Li       0.28472538       4.04856427       6.33688565       11       0.76230119       0.31610959      -0.22377450      -0.18848439       0.34048370       0.09424947
P        0.93259087       2.00069463       1.15441020       12      -0.20818065       0.39607553       0.77388363       0.69483316      -0.02236054      -0.18571486
P        5.16532176       6.01314716      11.90677224       13      -0.75749993       0.30881155       0.03719677       0.61960328       0.76219541      -0.97402340
P        4.06746136       5.99138408       5.35099428       14      -0.18196666      -0.68463722       0.96223371      -0.34216326       0.12433839      -0.45189518
P        2.14496990       1.99459902       7.68468216       15       0.63716197      -0.40679610       0.84225393       0.30571610       0.05028810       0.22225915
S        5.10869702       1.92945841       1.31372009       16      -0.50663044      -1.40114909       0.27121348      -0.79261190       0.24376914      -0.01476094
S        1.06105697       6.11643387      11.77314718       17       0.33978603       0.45065703       0.22934168      -0.24473101      -0.08402099       0.03745931
S        2.01545838       6.05687716       5.18709463       18       0.29817174      -0.21085139      -0.65006234       0.28365016      -0.33411828       0.01568373