32
Lattice="6.17176593 0.0 0.0 0.0 8.01859859 0.0 0.0 0.0 13.03281824" Properties=species:S:1:pos:R:3:spacegroup_kinds:I:1:forces:R:3 spacegroup="P 1" unit_cell=conventional occupancy="_JSON {\"0\": {\"Li\": 1}, \"1\": {\"Li\": 1}, \"2\": {\"Li\": 1}, \"3\": {\"Li\": 1}, \"4\": {\"Li\": 1}, \"5\": {\"Li\": 1}, \"6\": {\"Li\": 1}, \"7\": {\"Li\": 1}, \"8\": {\"Li\": 1}, \"9\": {\"Li\": 1}, \"10\": {\"Li\": 1}, \"11\": {\"Li\": 1}, \"12\": {\"P\": 1}, \"13\": {\"P\": 1}, \"14\": {\"P\": 1}, \"15\": {\"P\": 1}, \"16\": {\"S\": 1}, \"17\": {\"S\": 1}, \"18\": {\"S\": 1}, \"19\": {\"S\": 1}, \"20\": {\"S\": 1}, \"21\": {\"S\": 1}, \"22\": {\"S\": 1}, \"23\": {\"S\": 1}, \"24\": {\"S\": 1}, \"25\": {\"S\": 1}, \"26\": {\"S\": 1}, \"27\": {\"S\": 1}, \"28\": {\"S\": 1}, \"29\": {\"S\": 1}, \"30\": {\"S\": 1}, \"31\": {\"S\": 1}}" energy=-140.31869506835938 free_energy=-140.31869506835938 stress="-0.0071706282906234264 5.792562873807583e-09 -2.1948128037241332e-10 5.792562873807583e-09 -0.008259410038590431 -9.78903180737234e-09 -2.1948128037241332e-10 -9.78903180737234e-09 -0.005266312509775162" pbc="T T T"
Li       2.40329652       0.26860172       4.33400832        0      -0.02603559       0.00549144      -0.00432156
Li       3.76846941       7.74999687       8.69880992        1       0.02603594      -0.00549112       0.00432270
Li       5.48917948       7.74999687       2.18240080        2      -0.02603615      -0.00549060       0.00432310
Li       0.68258645       0.26860172      10.85041744        3       0.02603485       0.00549188      -0.00431880
Li       3.76846941       4.27790102       8.69880992        4       0.02603693       0.00549166       0.00432288
Li       2.40329652       3.74069757       4.33400832        5      -0.02603601      -0.00549195      -0.00432170
Li       0.68258645       3.74069757      10.85041744        6       0.02603588      -0.00549233      -0.00431959
Li       5.48917948       4.27790102       2.18240080        7      -0.02603606       0.00549093       0.00432216
Li       3.08588297       0.00000000       0.00000000        8      -0.00000069      -0.00000201       0.00000045
Li       0.00000000       0.00000000       6.51640912        9      -0.00000042      -0.00000037       0.00000052
Li       3.08588297       4.00929929       0.00000000       10      -0.00000029       0.00000048      -0.00000090
Li       0.00000000       4.00929929       6.51640912       11      -0.00000012       0.00000136       0.00000145
P        0.94051010       2.00464965       1.16601784       12      -0.02067132       0.00000000       0.02376118
P        5.23125583       6.01394894      11.86680040       13       0.02066617      -0.00000076      -0.02375871
P        4.02639307       6.01394894       5.35039128       14      -0.02066758       0.00000063      -0.02375682
P        2.14537286       2.00464965       7.68242696       15       0.02066812      -0.00000082       0.02375651
S        5.08970823       2.00464965       1.30575389       16      -0.25450554       0.00000126       0.01679025
S        1.08205770       6.01394894      11.72706435       17       0.25450802      -0.00000124      -0.01679215
S        2.00382526       6.01394894       5.21065523       18      -0.25450522       0.00000056      -0.01679155
S        4.16794067       2.00464965       7.82216301       19       0.25450146       0.00000065       0.01678985
S        1.68132889       2.00464965      12.25955363       20       0.10912223       0.00000038      -0.16719586
S        4.49043704       6.01394894       0.77326461       21      -0.10912038       0.00000062       0.16718099
S        4.76721186       6.01394894       7.28967373       22       0.10912067      -0.00000027       0.16717920
S        1.40455407       2.00464965       5.74314451       23      -0.10911945      -0.00000012      -0.16718090
S        1.67233151       0.29287049       2.00524453       24       0.13957815      -0.21272597       0.08709884
S        4.49943442       7.72572810      11.02757371       25      -0.13957590       0.21272506      -0.08709250
S        4.75821447       7.72572810       4.51116459       26       0.13957411       0.21272436      -0.08709283
S        1.41355146       0.29287049       8.52165365       27      -0.13957539      -0.21272002       0.08709157
S        4.49943442       4.30216979      11.02757371       28      -0.13957623      -0.21272521      -0.08709452
S        1.67233151       3.71642880       2.00524453       29       0.13957900       0.21272686       0.08709833
S        1.41355146       3.71642880       8.52165365       30      -0.13957581       0.21272020       0.08709123
S        4.75821447       4.30216979       4.51116459       31       0.13957652      -0.21272561      -0.08709264
