32
Lattice="6.17176593 0.0 0.0 0.0 8.01859859 0.0 0.0 0.0 13.03281824" Properties=species:S:1:pos:R:3:spacegroup_kinds:I:1:momenta:R:3:forces:R:3 spacegroup="P 1" unit_cell=conventional occupancy="_JSON {\"0\": {\"Li\": 1}, \"1\": {\"Li\": 1}, \"2\": {\"Li\": 1}, \"3\": {\"Li\": 1}, \"4\": {\"Li\": 1}, \"5\": {\"Li\": 1}, \"6\": {\"Li\": 1}, \"7\": {\"Li\": 1}, \"8\": {\"Li\": 1}, \"9\": {\"Li\": 1}, \"10\": {\"Li\": 1}, \"11\": {\"Li\": 1}, \"12\": {\"P\": 1}, \"13\": {\"P\": 1}, \"14\": {\"P\": 1}, \"15\": {\"P\": 1}, \"16\": {\"S\": 1}, \"17\": {\"S\": 1}, \"18\": {\"S\": 1}, \"19\": {\"S\": 1}, \"20\": {\"S\": 1}, \"21\": {\"S\": 1}, \"22\": {\"S\": 1}, \"23\": {\"S\": 1}, \"24\": {\"S\": 1}, \"25\": {\"S\": 1}, \"26\": {\"S\": 1}, \"27\": {\"S\": 1}, \"28\": {\"S\": 1}, \"29\": {\"S\": 1}, \"30\": {\"S\": 1}, \"31\": {\"S\": 1}}" energy=-139.24520874023438 free_energy=-139.24520874023438 stress="-0.00749067310243845 0.00021914365061093122 0.0002579540014266968 0.00021914365061093122 -0.009654443711042404 0.0024838715326040983 0.0002579540014266968 0.0024838715326040983 -0.00358384195715189" pbc="T T T"
Li       2.24886428       0.10679898       4.38656129        0      -1.02729653      -0.77973670      -0.02662583       0.32118586       0.18558136      -0.20784074
Li       3.88472798       7.59020047       8.60550163        1       0.25479551      -0.10519579       0.16830333       0.00350963       0.36071900       0.18865350
Li       5.25425341       8.12022939       2.12425609        2       0.23863060      -0.32745061      -1.16852849       0.00627847      -0.48332667      -0.21150860
Li       0.40160668       0.47890350      10.72249391        3      -0.50848355      -0.10362345       0.43500922      -0.03009588       0.02782062      -0.02589431
Li       3.85311555       4.25941688       8.68755614        4       0.06819321      -0.21504810      -0.06704180       0.29410878       0.13866529       0.08243618
Li       2.20896519       3.66686433       4.42870417        5       0.09129553       0.41560492      -0.15720466       0.16333403      -0.03692770       0.12578911
Li       1.05572968       3.96431742      10.77044257        6      -0.04167542       0.30664271       0.19473227      -0.14263178       0.07664500       0.10626605
Li       5.68743241       4.28945984       2.46854685        7      -0.28003680       0.06934768       0.14786401      -0.11211428       0.53087503      -0.03902214
Li       2.52305421      -0.70413488       0.15277216        8      -0.39620798       0.39855588       0.03482775      -0.09135704       0.08689652      -0.15143767
Li       0.40246242      -0.33803914       6.55527313        9       0.26572659      -0.54596390      -0.19187969      -0.15766206      -0.06078083      -0.19643585
Li       3.65153599       3.20424306      -0.09931523       10      -0.54981848       0.31934778       0.30140198      -0.27727440       0.15135579      -0.01043053
Li      -0.21254394       3.58818239       6.67631198       11       0.31551987       0.42820963       0.23184507      -0.24457814       0.06245651       0.07670552
P        0.91155894       2.20100195       1.21699534       12      -0.46857457       0.73024580      -0.48535496       1.07320714      -0.11995526      -0.55610460
P        5.09970153       6.06513677      11.89242389       13       2.13917732      -1.30191142       0.25700140       0.75384951       0.35709020      -0.00370605
P        4.06386700       5.77195275       5.24912227       14       1.06090922      -0.29072770       0.76159134       0.37124887       0.79060596       0.40432018
P        2.12721809       2.09317566       7.68146083       15      -0.71267614      -0.25183806      -1.15789945       1.76152825      -1.16553342      -0.10063271
S        5.11369623       2.29475640       1.45873951       16      -0.17799568      -0.17482446       0.65160994      -1.25350475       0.14283614      -0.04773390
S        0.95431835       6.30865415      11.39166829       17      -0.34669868       0.43352584      -0.72481788      -0.15251417      -0.31740683       0.52213931
S        2.03998872       5.93956794       5.22778203       18      -0.89572340       0.22796380       0.17646429      -0.51469243      -0.50156021       0.07659175
S        4.25173001       2.03039283       7.89113571       19       0.77483808      -0.07574014       0.49273169      -0.66539800       0.00621118      -0.15837774
S        1.52418609       2.07289839      12.23085673       20      -1.72375092      -1.08477786      -0.23564152       0.13598585       0.11037100       0.59177446
S        4.61749638       6.09752747       0.88486781       21      -0.60823149      -0.72765399      -0.49302790      -0.01000423      -0.23411134      -0.39361715
S        4.88424236       6.03821373       7.17999822       22       0.44686142       0.09013002      -0.35971045      -0.01939242      -0.57978642      -0.08503055
S        1.36036062       1.92222076       5.77559113       23       0.73112721      -1.48963423       0.05754127      -0.07198258      -0.09322944      -0.24216783
S        1.41576830       0.46586000       2.13098406       24       1.41918218       1.40061449      -0.56008234       0.59217191      -0.72498113      -0.10011862
S        4.20978860       7.74072409      11.11001501       25       0.24269533      -0.25462986      -0.55122797      -0.20005341      -0.20325209      -0.04937726
S        4.69435382       7.43583708       4.24581442       26      -0.09094577      -0.96751398      -0.38606115       0.25994021       0.02960304       0.40707919
S        1.61270457       0.27872168       8.52216769       27       0.37464646      -0.01895081       1.32725197      -0.51568508       0.38382381       0.38871825
S        4.64437532       4.24214059      11.05075692       28       0.09506646       1.10322825       0.98602585      -0.21665043       0.13343044      -0.10420416
S        1.84896433       3.75973145       2.13554686       29      -0.39962177       1.30639309      -0.20535498       0.03280838       0.26942122      -0.63628840
S        1.55982815       3.88304838       8.35189792       30      -0.67287466      -0.03281795      -0.93393442      -0.69175780       0.45884690       0.49548358
S        4.75658066       3.95067101       4.63483414       31       0.38194697       1.51822907       1.48019196      -0.40180743       0.21759617      -0.14602840
