32
Lattice="6.17176593 0.0 0.0 0.0 8.01859859 0.0 0.0 0.0 13.03281824" Properties=species:S:1:pos:R:3:spacegroup_kinds:I:1:momenta:R:3:forces:R:3 spacegroup="P 1" unit_cell=conventional occupancy="_JSON {\"0\": {\"Li\": 1}, \"1\": {\"Li\": 1}, \"2\": {\"Li\": 1}, \"3\": {\"Li\": 1}, \"4\": {\"Li\": 1}, \"5\": {\"Li\": 1}, \"6\": {\"Li\": 1}, \"7\": {\"Li\": 1}, \"8\": {\"Li\": 1}, \"9\": {\"Li\": 1}, \"10\": {\"Li\": 1}, \"11\": {\"Li\": 1}, \"12\": {\"P\": 1}, \"13\": {\"P\": 1}, \"14\": {\"P\": 1}, \"15\": {\"P\": 1}, \"16\": {\"S\": 1}, \"17\": {\"S\": 1}, \"18\": {\"S\": 1}, \"19\": {\"S\": 1}, \"20\": {\"S\": 1}, \"21\": {\"S\": 1}, \"22\": {\"S\": 1}, \"23\": {\"S\": 1}, \"24\": {\"S\": 1}, \"25\": {\"S\": 1}, \"26\": {\"S\": 1}, \"27\": {\"S\": 1}, \"28\": {\"S\": 1}, \"29\": {\"S\": 1}, \"30\": {\"S\": 1}, \"31\": {\"S\": 1}}" energy=-140.31869506835938 free_energy=-140.31869506835938 stress="-0.007170632015913725 4.404314246642116e-09 6.09926908978764e-09 4.404314246642116e-09 -0.008259405381977558 -5.144313863780781e-09 6.09926908978764e-09 -5.144313863780781e-09 -0.00526632321998477" pbc="T T T"
Li       2.40329652       0.26860172       4.33400832        0       0.00000000       0.00000000       0.00000000      -0.02603511       0.00549134      -0.00432097
Li       3.76846941       7.74999687       8.69880992        1       0.00000000       0.00000000       0.00000000       0.02603688      -0.00549249       0.00432281
Li       5.48917948       7.74999687       2.18240080        2       0.00000000       0.00000000       0.00000000      -0.02603554      -0.00549092       0.00432289
Li       0.68258645       0.26860172      10.85041744        3       0.00000000       0.00000000       0.00000000       0.02603479       0.00549134      -0.00431948
Li       3.76846941       4.27790102       8.69880992        4       0.00000000       0.00000000       0.00000000       0.02603640       0.00549216       0.00432235
Li       2.40329652       3.74069757       4.33400832        5       0.00000000       0.00000000       0.00000000      -0.02603663      -0.00549191      -0.00432171
Li       0.68258645       3.74069757      10.85041744        6       0.00000000       0.00000000       0.00000000       0.02603644      -0.00549185      -0.00431988
Li       5.48917948       4.27790102       2.18240080        7       0.00000000       0.00000000       0.00000000      -0.02603621       0.00549117       0.00432321
Li       3.08588297       0.00000000       0.00000000        8       0.00000000       0.00000000       0.00000000      -0.00000072      -0.00000248       0.00000007
Li       0.00000000       0.00000000       6.51640912        9       0.00000000       0.00000000       0.00000000       0.00000065      -0.00000080      -0.00000010
Li       3.08588297       4.00929929       0.00000000       10       0.00000000       0.00000000       0.00000000      -0.00000033       0.00000210       0.00000043
Li       0.00000000       4.00929929       6.51640912       11       0.00000000       0.00000000       0.00000000      -0.00000007      -0.00000026      -0.00000140
P        0.94051010       2.00464965       1.16601784       12       0.00000000       0.00000000       0.00000000      -0.02067216      -0.00000114       0.02375957
P        5.23125583       6.01394894      11.86680040       13       0.00000000       0.00000000       0.00000000       0.02066617       0.00000062      -0.02375960
P        4.02639307       6.01394894       5.35039128       14       0.00000000       0.00000000       0.00000000      -0.02066794       0.00000088      -0.02375590
P        2.14537286       2.00464965       7.68242696       15       0.00000000       0.00000000       0.00000000       0.02066924      -0.00000003       0.02375674
S        5.08970823       2.00464965       1.30575389       16       0.00000000       0.00000000       0.00000000      -0.25450590       0.00000096       0.01679057
S        1.08205770       6.01394894      11.72706435       17       0.00000000       0.00000000       0.00000000       0.25450769       0.00000011      -0.01679134
S        2.00382526       6.01394894       5.21065523       18       0.00000000       0.00000000       0.00000000      -0.25450554      -0.00000041      -0.01679188
S        4.16794067       2.00464965       7.82216301       19       0.00000000       0.00000000       0.00000000       0.25450075       0.00000045       0.01678939
S        1.68132889       2.00464965      12.25955363       20       0.00000000       0.00000000       0.00000000       0.10912210       0.00000050      -0.16719592
S        4.49043704       6.01394894       0.77326461       21       0.00000000       0.00000000       0.00000000      -0.10912062       0.00000031       0.16718143
S        4.76721186       6.01394894       7.28967373       22       0.00000000       0.00000000       0.00000000       0.10912074       0.00000042       0.16717973
S        1.40455407       2.00464965       5.74314451       23       0.00000000       0.00000000       0.00000000      -0.10911977       0.00000034      -0.16718112
S        1.67233151       0.29287049       2.00524453       24       0.00000000       0.00000000       0.00000000       0.13957796      -0.21272586       0.08709972
S        4.49943442       7.72572810      11.02757371       25       0.00000000       0.00000000       0.00000000      -0.13957520       0.21272309      -0.08709277
S        4.75821447       7.72572810       4.51116459       26       0.00000000       0.00000000       0.00000000       0.13957603       0.21272559      -0.08709078
S        1.41355146       0.29287049       8.52165365       27       0.00000000       0.00000000       0.00000000      -0.13957623      -0.21272072       0.08709029
S        4.49943442       4.30216979      11.02757371       28       0.00000000       0.00000000       0.00000000      -0.13957745      -0.21272495      -0.08709308
S        1.67233151       3.71642880       2.00524453       29       0.00000000       0.00000000       0.00000000       0.13957861       0.21272749       0.08709912
S        1.41355146       3.71642880       8.52165365       30       0.00000000       0.00000000       0.00000000      -0.13957557       0.21272068       0.08709134
S        4.75821447       4.30216979       4.51116459       31       0.00000000       0.00000000       0.00000000       0.13957649      -0.21272576      -0.08709379
32
Lattice="6.17176593 0.0 0.0 0.0 8.01859859 0.0 0.0 0.0 13.03281824" Properties=species:S:1:pos:R:3:spacegroup_kinds:I:1:momenta:R:3:forces:R:3 spacegroup="P 1" unit_cell=conventional occupancy="_JSON {\"0\": {\"Li\": 1}, \"1\": {\"Li\": 1}, \"2\": {\"Li\": 1}, \"3\": {\"Li\": 1}, \"4\": {\"Li\": 1}, \"5\": {\"Li\": 1}, \"6\": {\"Li\": 1}, \"7\": {\"Li\": 1}, \"8\": {\"Li\": 1}, \"9\": {\"Li\": 1}, \"10\": {\"Li\": 1}, \"11\": {\"Li\": 1}, \"12\": {\"P\": 1}, \"13\": {\"P\": 1}, \"14\": {\"P\": 1}, \"15\": {\"P\": 1}, \"16\": {\"S\": 1}, \"17\": {\"S\": 1}, \"18\": {\"S\": 1}, \"19\": {\"S\": 1}, \"20\": {\"S\": 1}, \"21\": {\"S\": 1}, \"22\": {\"S\": 1}, \"23\": {\"S\": 1}, \"24\": {\"S\": 1}, \"25\": {\"S\": 1}, \"26\": {\"S\": 1}, \"27\": {\"S\": 1}, \"28\": {\"S\": 1}, \"29\": {\"S\": 1}, \"30\": {\"S\": 1}, \"31\": {\"S\": 1}}" energy=-139.9976043701172 free_energy=-139.9976043701172 stress="-0.0029214774258434772 5.972007056698203e-05 -0.0009408140322193503 5.972007056698203e-05 -0.001222226652316749 0.0008397850906476378 -0.0009408140322193503 0.0008397850906476378 -0.0029407180845737457" pbc="T T T"
Li       2.43189952       0.40804390       4.25185474        0       0.30073507      -0.30189764       0.22464919       0.06067079      -0.24570024       0.09867098
Li       3.68327262       7.61530613       8.72277730        1      -0.02145546      -0.04123655      -0.14308577       0.13175765       0.13785693       0.04158666
Li       5.50779061       7.74480539       2.17262730        2       0.00508298       0.20599322      -0.18535535      -0.06484140      -0.00375872      -0.02912246
Li       0.71120652       0.42132290      10.84567678        3       0.24899879       0.43259793      -0.17486971      -0.14670107      -0.26854107      -0.06593917
Li       4.00245745       4.25036507       8.64231004        4       0.27629817      -0.61260991       0.02746781      -0.26886752      -0.09974478       0.16109791
Li       2.38072810       3.67583701       4.33394790        5       0.02216603      -0.00123077      -0.44418443       0.08068649       0.16037899       0.01053371
Li       0.80657610       3.74566900      10.77775505        6       0.65100461       0.10957684       0.16980324      -0.10551278       0.08283332       0.20321146
Li       5.33522731       4.29980418       2.20445588        7      -0.52318284       0.29070880      -0.02691311       0.07170089      -0.00119059      -0.17771152
Li       2.83287158      -0.15602597      -0.17566241        8      -0.40748296      -0.06151241      -0.46673962      -0.00096830      -0.03706769       0.04893401
Li       0.13271057       0.01500075       6.61852801        9       0.49344947       0.32174826       0.29004769      -0.36962396      -0.17513627      -0.46859735
Li       3.11551516       4.02558715       0.06610028       10       0.11641926      -0.05484336       0.05145646      -0.04792738      -0.08252221      -0.09372205
Li      -0.06587947       3.94491495       6.47016268       11       0.30461787       0.10401504      -0.23042257       0.07307342      -0.05221739       0.02840723
P        0.96721246       2.04256021       1.18586504       12      -0.40785701       0.31593755      -0.75145288      -0.44263235      -0.29545885      -0.30076092
P        5.17455388       6.01951544      11.84237969       13       0.16202296      -0.71615340      -0.47275657       0.51981622      -0.03420296      -0.17784704
P        4.05507858       6.04881931       5.35705916       14       0.73876671      -0.48396235       0.14240881       0.69205499      -0.72514635       0.07691605
P        2.13613406       1.99037900       7.72341685       15       0.23954628      -0.15687686       0.15884445       0.12145912      -0.24307211      -0.42597753
S        5.10317732       1.97033673       1.32929497       16       0.33364908       0.64585009       0.07620767       0.00487925       0.15405351      -0.07351204
S        1.08140118       6.03206335      11.71456221       17      -0.87019549      -0.18506343       0.45014115      -0.43893367      -0.04793312       0.05642696
S        2.07106581       5.99242003       5.27258019       18       0.02288409      -0.28933116       0.30594782      -0.73440737       0.13316590      -0.13446367
S        4.17804454       1.96714861       7.85448429       19       0.36443942      -0.33812209       0.68372180      -0.23574549      -0.10032478       0.04442717
S        1.74122310       1.99892448      12.25568138       20       1.01638252      -0.38603810       0.11628149      -0.01606785       0.28601891       0.25701737
S        4.33878325       6.10315067       0.71605927       21      -0.68719586       0.02924200      -0.84308069       0.21608573      -0.32355136       0.25543815
S        4.83272779       6.02716749       7.33169193       22       0.13663824       0.31361396      -0.37906437       0.09130178      -0.01805957      -0.46150815
S        1.38867641       1.97226668       5.73146787       23      -0.68057583       0.54445174       0.37622253       0.05036328       0.02704308       0.39103675
S        1.69641440       0.29921395       1.98935393       24      -0.51751751      -0.07987534      -0.13083502       0.14731321      -0.03687155       0.06252947
S        4.54144595       7.78742724      11.02283305       25       0.61721492       0.49502954      -0.43906920      -0.23750296      -0.10631263      -0.23218694
S        4.79104176       7.74396500       4.52055604       26      -0.43573908       0.50723952       0.04853795       0.17086397       0.17671888      -0.02545809
S        1.38068879       0.22078473       8.52215454       27      -0.62989536      -0.96324607       0.37210803       0.27542326       0.43223369       0.25546566
S        4.48285957       4.23214101      11.03941618       28      -0.18567697       0.48063170       0.89251039       0.20173419       0.43000555       0.07216515
S        1.58850672       3.78669773       2.01063345       29      -0.24692633       0.12129993      -0.06672693       0.30758229       0.24808601       0.11958259
S        1.37624066       3.71630740       8.48687116       30       0.25294642      -0.02713302       0.05475712       0.12861519       0.07316394       0.03927025
S        4.78841857       4.26008962       4.47498120       31      -0.68956212      -0.21880366       0.31344268      -0.23564951       0.55525368       0.44408959
32
Lattice="6.17176593 0.0 0.0 0.0 8.01859859 0.0 0.0 0.0 13.03281824" Properties=species:S:1:pos:R:3:spacegroup_kinds:I:1:momenta:R:3:forces:R:3 spacegroup="P 1" unit_cell=conventional occupancy="_JSON {\"0\": {\"Li\": 1}, \"1\": {\"Li\": 1}, \"2\": {\"Li\": 1}, \"3\": {\"Li\": 1}, \"4\": {\"Li\": 1}, \"5\": {\"Li\": 1}, \"6\": {\"Li\": 1}, \"7\": {\"Li\": 1}, \"8\": {\"Li\": 1}, \"9\": {\"Li\": 1}, \"10\": {\"Li\": 1}, \"11\": {\"Li\": 1}, \"12\": {\"P\": 1}, \"13\": {\"P\": 1}, \"14\": {\"P\": 1}, \"15\": {\"P\": 1}, \"16\": {\"S\": 1}, \"17\": {\"S\": 1}, \"18\": {\"S\": 1}, \"19\": {\"S\": 1}, \"20\": {\"S\": 1}, \"21\": {\"S\": 1}, \"22\": {\"S\": 1}, \"23\": {\"S\": 1}, \"24\": {\"S\": 1}, \"25\": {\"S\": 1}, \"26\": {\"S\": 1}, \"27\": {\"S\": 1}, \"28\": {\"S\": 1}, \"29\": {\"S\": 1}, \"30\": {\"S\": 1}, \"31\": {\"S\": 1}}" energy=-139.68557739257812 free_energy=-139.68557739257812 stress="-0.010213694535195827 -0.00013193745689932257 -0.0010727521730586886 -0.00013193745689932257 -0.009089279919862747 0.0012702844105660915 -0.0010727521730586886 0.0012702844105660915 -0.008845294825732708" pbc="T T T"
Li       2.38122501       0.14135980       4.49348379        0      -0.49223189       0.19001830       0.01784550      -0.08447382       0.27478099      -0.34112370
Li       3.73426173       7.59302429       8.73468507        1      -0.37145484       0.11957027      -0.53364042      -0.02024992       0.05719010      -0.43149701
Li       5.30189930       7.73220087       2.12608513        2      -0.70875403      -0.21719308       0.66568991       0.12834835       0.32886982       0.06200077
Li       0.59902941       0.55703305      10.86755339        3      -0.25767081       0.07102898      -0.60690661       0.08608012      -0.11585185      -0.03271839
Li       4.02258000       4.19913441       8.77402310        4      -0.18317187       0.32381641       0.07933352      -0.15818372      -0.02481524      -0.17611709
Li       2.34567373       3.69733640       4.37726311        5      -0.28875563       0.11427072       0.24584777       0.13309316       0.10656559      -0.21133623
Li       1.15583191       3.84283319      10.88401485        6       0.19975332      -0.31836776      -0.10047609      -0.23225445       0.01840024      -0.04469026
Li       5.43033079       4.52934333       2.22144670        7       0.77226716      -0.01926357      -0.03065973       0.18782324      -0.33589464       0.01367958
Li       2.73241854      -0.18944159      -0.36590179        8      -0.11695012      -0.36924567       0.11943327       0.01809661      -0.15261087       0.25933230
Li       0.04513253       0.00558965       6.41339853        9      -0.08304022      -0.15781127       0.15434043       0.08392270      -0.01545571       0.43631536
Li       3.23777933       3.91810349       0.11843197       10       0.25951259       0.12438833      -0.03893062       0.09493733      -0.06442155       0.06398627
Li       0.13770070       3.96577558       6.44415755       11      -0.28893516       0.74054795       0.54902741      -0.14129838       0.12561385       0.05733593
P        0.88958755       2.01156863       1.15570433       12      -0.25136128      -0.22844507       0.67854086      -0.01424533       0.27020481       0.12429956
P        5.12512135       6.10370232      11.77797992       13      -0.65355744      -0.06805502      -0.60839315       0.57414371      -1.27089620       0.46259999
P        4.06478822       6.03123719       5.38603638       14      -1.62649835      -0.34412164       0.00170514       0.44217974      -1.52256203       0.14602949
P        2.15475153       1.94510384       7.71945858       15       0.14191517       0.44652907       0.24714508       0.08038098       0.19924180       0.14994836
S        5.03673962       2.06825958       1.25530693       16      -0.56981364       1.30572480      -0.29540954      -0.04202269      -0.05465322       0.01330927
S        0.97399906       6.04968953      11.72459846       17      -0.26250242       1.66332720      -0.17674198       0.64545923       0.33246046      -0.07158642
S        2.06920174       5.98653251       5.30303454       18      -0.22569714      -0.45014448      -0.13509114      -0.97949755      -0.07673035       0.02373686
S        4.16957443       1.93825140       7.86325892       19      -0.24445236      -0.31541873      -0.02671372       0.35601279      -0.21576560      -0.07767402
S        1.79325084       2.03816389      12.31300707       20       0.30801772       0.48674797      -0.04890350      -0.09449407      -0.07047097      -0.54747701
S        4.41304553       6.08548413       0.69594239       21       0.76160999      -0.82555374       0.74885383      -0.44555217       0.19655107       0.07867666
S        4.89039565       5.96214857       7.26972913       22       0.39234521      -0.98082043       0.51239405       0.12077036       0.09865716       0.39723301
S        1.42862648       1.98251298       5.73169004       23       0.89363579      -0.80284820      -1.02413207      -0.07882334      -0.29804641       0.27371022
S        1.61160104       0.29448240       1.93588230       24      -0.09307361      -0.54495726      -0.41464496      -0.00619418      -0.52556223       0.42185935
S        4.56106696       7.77220282      10.86005337       25      -0.66818206      -0.39210024      -0.67502757      -0.77364987       0.77543414       0.06151329
S        4.73509050       7.74529526       4.61608386       26      -0.09141882      -0.42919011       0.26009862       0.32679206       0.71868706      -0.88349807
S        1.42688930       0.26210063       8.63822288       27       0.81043538       0.78228733       0.17410667      -0.20879199      -0.00458500      -0.40972662
S        4.46422751       4.27924218      11.08138279       28      -0.10592768       0.40641105      -0.33253911       0.00798427       0.19626577      -0.15322645
S        1.64238607       3.71714504       1.97042006       29       0.30491718      -0.14010956       0.40695755       0.06485371       0.44538116       0.43466127
S        1.48116504       3.70600554       8.52197524       30       1.28283573      -0.30667259       0.50229324      -0.12340595       0.08231409      -0.09606751
S        4.72388049       4.23066754       4.52554547       31       1.45620412       0.13565005      -0.31540258       0.05225892       0.52170378      -0.00348864
32
Lattice="6.17176593 0.0 0.0 0.0 8.01859859 0.0 0.0 0.0 13.03281824" Properties=species:S:1:pos:R:3:spacegroup_kinds:I:1:momenta:R:3:forces:R:3 spacegroup="P 1" unit_cell=conventional occupancy="_JSON {\"0\": {\"Li\": 1}, \"1\": {\"Li\": 1}, \"2\": {\"Li\": 1}, \"3\": {\"Li\": 1}, \"4\": {\"Li\": 1}, \"5\": {\"Li\": 1}, \"6\": {\"Li\": 1}, \"7\": {\"Li\": 1}, \"8\": {\"Li\": 1}, \"9\": {\"Li\": 1}, \"10\": {\"Li\": 1}, \"11\": {\"Li\": 1}, \"12\": {\"P\": 1}, \"13\": {\"P\": 1}, \"14\": {\"P\": 1}, \"15\": {\"P\": 1}, \"16\": {\"S\": 1}, \"17\": {\"S\": 1}, \"18\": {\"S\": 1}, \"19\": {\"S\": 1}, \"20\": {\"S\": 1}, \"21\": {\"S\": 1}, \"22\": {\"S\": 1}, \"23\": {\"S\": 1}, \"24\": {\"S\": 1}, \"25\": {\"S\": 1}, \"26\": {\"S\": 1}, \"27\": {\"S\": 1}, \"28\": {\"S\": 1}, \"29\": {\"S\": 1}, \"30\": {\"S\": 1}, \"31\": {\"S\": 1}}" energy=-139.76638793945312 free_energy=-139.76638793945312 stress="-0.0006650472059845924 -0.0005345081444829702 0.00041455309838056564 -0.0005345081444829702 -0.0027049335185438395 0.0017363085644319654 0.00041455309838056564 0.0017363085644319654 -0.004586576484143734" pbc="T T T"
Li       2.46167661       0.13013553       4.20188248        0       0.43182356      -0.25147457      -0.53265884      -0.23217042       0.05014751       0.06844551
Li       3.66600665       7.56681985       8.36942154        1       0.13980260       0.39153985       0.36380470      -0.03559860       0.17416893       0.28105447
Li       5.21736914       8.01511230       2.27611270        2       0.23141968       0.80118563      -1.22534838       0.04405532      -0.21914288      -0.10689782
Li       0.57690529       0.47491894      10.88439419        3       0.28836508      -0.51707015       0.20827528      -0.16840398       0.10818082      -0.22605373
Li       3.84641714       4.22646193       8.70903639        4       0.18466441       0.38306843       0.05310448       0.07014555       0.00342021       0.02573851
Li       2.49698090       3.60643451       4.29344836        5      -0.40380279      -0.37092562       0.16025927      -0.14008906       0.08216842       0.28067583
Li       0.87486632       3.94904386      10.94954795        6      -0.36137164       0.31787893      -0.07306766      -0.03940612      -0.08553751      -0.00082527
Li       5.72811902       4.50220564       2.26273276        7      -0.43038527       0.54423756      -0.06072882      -0.20115244       0.05573274      -0.12674803
Li       2.68576579      -0.35887966      -0.06113324        8       0.36480003       0.04991989       0.57869856       0.09800103       0.01582520      -0.17149284
Li       0.14233392      -0.00738447       6.67746800        9      -0.06863806       0.23833670      -0.14926522      -0.33761266      -0.21306920      -0.50996685
Li       3.46825982       3.88997132       0.26831112       10       0.66822378      -0.31956556      -0.07062094      -0.05838387      -0.10308314      -0.16029564
Li      -0.05224621       3.91832030       6.64083946       11      -0.37713917      -0.39876666      -0.32290509       0.13721177      -0.07177362      -0.07994290
P        0.88491668       2.00622433       1.16553842       12       0.33039679      -0.23894827       0.52267377       0.28983420       0.03621448       0.74631637
P        5.16696021       6.13599290      11.78214115       13      -0.45683144       1.68073876      -0.64546453      -0.26147324      -0.11221386      -0.02285659
P        3.99815729       5.88910361       5.34938766       14      -0.37773465       0.65931259       0.08385636      -0.49567258       0.21208517       0.65424144
P        2.27139638       2.01821979       7.66494739       15       1.02575198      -0.71628271      -0.69802596      -0.84833014       0.15066445       0.94269192
S        5.02844702       2.20173038       1.32349200       16       1.00952014       0.87270579       0.95931950       0.09482902      -0.18516359       0.06559194
S        1.05070820       6.30461763      11.62602251       17      -0.15023026       1.36385560      -0.78280784      -0.30717760      -0.37759751      -0.02565556
S        1.89836020       5.95735870       5.24221306       18       0.12062994      -0.44378100      -0.78268058       1.01941490      -0.21942821      -0.00121021
S        4.26237116       1.92645218       7.83082414       19       0.87155782       0.16773130       0.27038363       0.60080099       0.03871923       0.00983632
S        1.72287662       2.05579426      12.35524713       20      -1.13195184      -0.21478639       0.48371072       0.10803615       0.09502348      -0.74763346
S        4.49734696       6.07315833       0.77797291       21       1.04728567       0.95213992       0.42052285       0.08330670       0.16317953      -0.45021600
S        4.85385835       5.89359538       7.31218492       22      -0.41204758      -0.51546157       0.12287746      -0.24819586      -0.12029607      -0.53364038
S        1.50752519       1.95782569       5.77701909       23      -0.52855444       0.32030078       0.97874722      -0.22416002       0.13238531      -0.63894653
S        1.50636229       0.15913304       1.93163486       24      -1.60017650      -0.10644113       0.74460030      -0.33721903       0.47081017       0.27364445
S        4.24992641       7.72529750      10.84281607       25      -1.38689209      -1.88604346       1.48342436       0.40681002      -0.20851953       0.45356470
S        4.74689833       7.62281260       4.61973669       26      -0.07133193      -1.26441150       0.00283048       0.24719399       0.53515208      -0.23519744
S        1.41494710       0.33078903       8.52968335       27       0.05736276       0.08348380      -1.09870042       0.27347153       0.15582523       0.42107207
S        4.56450863       4.31107174      10.96484840       28       0.57486005      -0.50675694      -0.55684536       0.26603797       0.32489035       0.53845388
S        1.71908456       3.65255235       2.11887131       29       0.92535965      -1.25081741       0.66719044       0.14798523      -0.14584403      -0.33772758
S        1.54217923       3.75183507       8.60546283       30      -0.37522881       0.66393101      -0.63376764       0.01092564      -0.42771167      -0.50065345
S        4.77243683       4.25115077       4.44150630       31      -0.13950744      -0.48883358      -0.47139206       0.03698570      -0.31521228       0.11463321
32
Lattice="6.17176593 0.0 0.0 0.0 8.01859859 0.0 0.0 0.0 13.03281824" Properties=species:S:1:pos:R:3:spacegroup_kinds:I:1:momenta:R:3:forces:R:3 spacegroup="P 1" unit_cell=conventional occupancy="_JSON {\"0\": {\"Li\": 1}, \"1\": {\"Li\": 1}, \"2\": {\"Li\": 1}, \"3\": {\"Li\": 1}, \"4\": {\"Li\": 1}, \"5\": {\"Li\": 1}, \"6\": {\"Li\": 1}, \"7\": {\"Li\": 1}, \"8\": {\"Li\": 1}, \"9\": {\"Li\": 1}, \"10\": {\"Li\": 1}, \"11\": {\"Li\": 1}, \"12\": {\"P\": 1}, \"13\": {\"P\": 1}, \"14\": {\"P\": 1}, \"15\": {\"P\": 1}, \"16\": {\"S\": 1}, \"17\": {\"S\": 1}, \"18\": {\"S\": 1}, \"19\": {\"S\": 1}, \"20\": {\"S\": 1}, \"21\": {\"S\": 1}, \"22\": {\"S\": 1}, \"23\": {\"S\": 1}, \"24\": {\"S\": 1}, \"25\": {\"S\": 1}, \"26\": {\"S\": 1}, \"27\": {\"S\": 1}, \"28\": {\"S\": 1}, \"29\": {\"S\": 1}, \"30\": {\"S\": 1}, \"31\": {\"S\": 1}}" energy=-139.1641082763672 free_energy=-139.1641082763672 stress="-0.0022271641064435244 -0.00224473187699914 0.00011508209718158469 -0.00224473187699914 -0.004970548674464226 -0.0035436111502349377 0.00011508209718158469 -0.0035436111502349377 -0.009211104363203049" pbc="T T T"
Li       2.44801829       0.41826571       4.17029683        0      -0.22923382       0.57907329       0.49689493       0.12096444      -0.20864525       0.34432811
Li       3.74715694       7.68519708       8.69766155        1       0.10835239       0.04627305      -0.31688244       0.00143798       0.01517553      -0.23490810
Li       5.19549989       7.96040457       1.80147723        2      -0.25935905       0.64717405       0.95090854       0.22690463       0.69114614       0.81373352
Li       0.55148246       0.51316317      10.77964244        3      -0.16490838       0.21055071      -0.72066384      -0.12644154      -0.04643839      -0.12100034
Li       4.01899372       4.37166195       8.80737095        4       0.40652535      -0.10992643       0.25265316      -0.24052233      -0.23123187      -0.17045094
Li       2.41954364       3.71122732       4.52630526        5      -0.07520023       0.23577176      -0.11880823      -0.45031101      -0.39241549      -0.21813367
Li       0.89474688       3.93533068      10.82212002        6       0.01915930       0.03008230      -0.12972122       0.06821120       0.02156484       0.06992187
Li       5.66494266       4.48660996       2.27707137        7       0.21605759      -0.29513136       0.18615149       0.06272064      -0.11206084       0.08019163
Li       2.69283711      -0.48401419       0.00001287        8      -0.51216909      -0.61341190      -0.45972618      -0.28407186       0.02581768       0.03601569
Li      -0.01165999      -0.15520594       6.33806281        9       0.82571129      -0.28596247       0.60550017       0.37787530       0.14389256       0.28665620
Li       3.64301717       3.32230464      -0.24465293       10      -0.04176633      -1.07022133      -0.40378527      -0.06685107      -0.01868934       0.51649785
Li      -0.40425172       3.51518835       6.60461523       11      -0.84447940      -0.18463531       0.32061991       0.16945539       0.09390260       0.00370212
P        0.95849365       2.04664335       1.23853089       12       0.52308160       0.54496842      -0.96348793      -0.28326219      -0.08080620      -0.03475531
P        5.12322296       6.12770903      11.84782667       13       0.30571801      -0.61404017      -0.26746323      -0.10422596       0.80657554      -0.79256797
P        4.03267068       5.78791390       5.36066231       14       1.32314066       0.40784022      -1.40124476      -0.35551983       1.42251027      -0.66303259
P        2.23653025       2.12251202       7.70561338       15       0.31721984      -0.74927930      -1.25996458       0.24268091      -1.14414167      -0.34157610
S        5.05486581       2.27138859       1.41808561       16      -0.88552150       1.03156422       0.04989912       0.46479309      -0.13493630      -0.13919801
S        0.92355227       6.29344697      11.51177489       17      -0.58188551      -0.41423433      -0.04470434       0.84603393       0.14863011      -0.13404079
S        1.98721782       5.81873768       5.22332543       18      -0.10822461      -0.24697222       0.18043655       0.29454499       0.71381164       0.14060777