32
Lattice="6.17176593 0.0 0.0 0.0 8.01859859 0.0 0.0 0.0 13.03281824" Properties=species:S:1:pos:R:3:spacegroup_kinds:I:1:forces:R:3 spacegroup="P 1" unit_cell=conventional occupancy="_JSON {\"0\": {\"Li\": 1}, \"1\": {\"Li\": 1}, \"2\": {\"Li\": 1}, \"3\": {\"Li\": 1}, \"4\": {\"Li\": 1}, \"5\": {\"Li\": 1}, \"6\": {\"Li\": 1}, \"7\": {\"Li\": 1}, \"8\": {\"Li\": 1}, \"9\": {\"Li\": 1}, \"10\": {\"Li\": 1}, \"11\": {\"Li\": 1}, \"12\": {\"P\": 1}, \"13\": {\"P\": 1}, \"14\": {\"P\": 1}, \"15\": {\"P\": 1}, \"16\": {\"S\": 1}, \"17\": {\"S\": 1}, \"18\": {\"S\": 1}, \"19\": {\"S\": 1}, \"20\": {\"S\": 1}, \"21\": {\"S\": 1}, \"22\": {\"S\": 1}, \"23\": {\"S\": 1}, \"24\": {\"S\": 1}, \"25\": {\"S\": 1}, \"26\": {\"S\": 1}, \"27\": {\"S\": 1}, \"28\": {\"S\": 1}, \"29\": {\"S\": 1}, \"30\": {\"S\": 1}, \"31\": {\"S\": 1}}" energy=-140.31869506835938 free_energy=-140.31869506835938 stress="-0.007170632015913725 4.404314246642116e-09 6.09926908978764e-09 4.404314246642116e-09 -0.008259405381977558 -5.144313863780781e-09 6.09926908978764e-09 -5.144313863780781e-09 -0.00526632321998477" pbc="T T T"
Li       2.40329652       0.26860172       4.33400832        0      -0.02603511       0.00549134      -0.00432097
Li       3.76846941       7.74999687       8.69880992        1       0.02603688      -0.00549249       0.00432281
Li       5.48917948       7.74999687       2.18240080        2      -0.02603554      -0.00549092       0.00432289
Li       0.68258645       0.26860172      10.85041744        3       0.02603479       0.00549134      -0.00431948
Li       3.76846941       4.27790102       8.69880992        4       0.02603640       0.00549216       0.00432235
Li       2.40329652       3.74069757       4.33400832        5      -0.02603663      -0.00549191      -0.00432171
Li       0.68258645       3.74069757      10.85041744        6       0.02603644      -0.00549185      -0.00431988
Li       5.48917948       4.27790102       2.18240080        7      -0.02603621       0.00549117       0.00432321
Li       3.08588297       0.00000000       0.00000000        8      -0.00000072      -0.00000248       0.00000007
Li       0.00000000       0.00000000       6.51640912        9       0.00000065      -0.00000080      -0.00000010
Li       3.08588297       4.00929929       0.00000000       10      -0.00000033       0.00000210       0.00000043
Li       0.00000000       4.00929929       6.51640912       11      -0.00000007      -0.00000026      -0.00000140
P        0.94051010       2.00464965       1.16601784       12      -0.02067216      -0.00000114       0.02375957
P        5.23125583       6.01394894      11.86680040       13       0.02066617       0.00000062      -0.02375960
P        4.02639307       6.01394894       5.35039128       14      -0.02066794       0.00000088      -0.02375590
P        2.14537286       2.00464965       7.68242696       15       0.02066924      -0.00000003       0.02375674
S        5.08970823       2.00464965       1.30575389       16      -0.25450590       0.00000096       0.01679057
S        1.08205770       6.01394894      11.72706435       17       0.25450769       0.00000011      -0.01679134
S        2.00382526       6.01394894       5.21065523       18      -0.25450554      -0.00000041      -0.01679188
S        4.16794067       2.00464965       7.82216301       19       0.25450075       0.00000045       0.01678939
S        1.68132889       2.00464965      12.25955363       20       0.10912210       0.00000050      -0.16719592
S        4.49043704       6.01394894       0.77326461       21      -0.10912062       0.00000031       0.16718143
S        4.76721186       6.01394894       7.28967373       22       0.10912074       0.00000042       0.16717973
S        1.40455407       2.00464965       5.74314451       23      -0.10911977       0.00000034      -0.16718112
S        1.67233151       0.29287049       2.00524453       24       0.13957796      -0.21272586       0.08709972
S        4.49943442       7.72572810      11.02757371       25      -0.13957520       0.21272309      -0.08709277
S        4.75821447       7.72572810       4.51116459       26       0.13957603       0.21272559      -0.08709078
S        1.41355146       0.29287049       8.52165365       27      -0.13957623      -0.21272072       0.08709029
S        4.49943442       4.30216979      11.02757371       28      -0.13957745      -0.21272495      -0.08709308
S        1.67233151       3.71642880       2.00524453       29       0.13957861       0.21272749       0.08709912
S        1.41355146       3.71642880       8.52165365       30      -0.13957557       0.21272068       0.08709134
S        4.75821447       4.30216979       4.51116459       31       0.13957649      -0.21272576      -0.08709379
