32
Lattice="6.17176593 0.0 0.0 0.0 8.01859859 0.0 0.0 0.0 13.03281824" Properties=species:S:1:pos:R:3:spacegroup_kinds:I:1:momenta:R:3:forces:R:3 spacegroup="P 1" unit_cell=conventional occupancy="_JSON {\"0\": {\"Li\": 1}, \"1\": {\"Li\": 1}, \"2\": {\"Li\": 1}, \"3\": {\"Li\": 1}, \"4\": {\"Li\": 1}, \"5\": {\"Li\": 1}, \"6\": {\"Li\": 1}, \"7\": {\"Li\": 1}, \"8\": {\"Li\": 1}, \"9\": {\"Li\": 1}, \"10\": {\"Li\": 1}, \"11\": {\"Li\": 1}, \"12\": {\"P\": 1}, \"13\": {\"P\": 1}, \"14\": {\"P\": 1}, \"15\": {\"P\": 1}, \"16\": {\"S\": 1}, \"17\": {\"S\": 1}, \"18\": {\"S\": 1}, \"19\": {\"S\": 1}, \"20\": {\"S\": 1}, \"21\": {\"S\": 1}, \"22\": {\"S\": 1}, \"23\": {\"S\": 1}, \"24\": {\"S\": 1}, \"25\": {\"S\": 1}, \"26\": {\"S\": 1}, \"27\": {\"S\": 1}, \"28\": {\"S\": 1}, \"29\": {\"S\": 1}, \"30\": {\"S\": 1}, \"31\": {\"S\": 1}}" energy=-140.17459106445312 free_energy=-140.17459106445312 stress="-0.0013477844186127186 0.0002519183326512575 0.0006282216636464 0.0002519183326512575 -0.003910025581717491 0.001766958157531917 0.0006282216636464 0.001766958157531917 -0.0047744144685566425" pbc="T T T"
Li       2.38644097       0.29554354       4.27554478        0       0.27854196      -0.18053709      -0.18683049       0.04969141      -0.01694500       0.08064016
Li       3.82734969       7.69423787       8.62679018        1      -0.08518229      -0.14257425      -0.07438031      -0.09609141       0.11490247       0.17897046
Li       5.39515887       7.85744408       2.20455309        2      -0.08681293      -0.11562147      -0.02028670       0.06696866      -0.25717503      -0.11846095
Li       0.78082454       0.32729357      10.78369417        3      -0.02428210      -0.12741535      -0.20533002      -0.15717579      -0.14748146       0.08348407
Li       3.79974535       4.29528064       8.75016087        4       0.00187510      -0.08723533       0.00751051      -0.07246952      -0.12873857      -0.08361481
Li       2.38874660       3.74057904       4.33122115        5       0.08888638      -0.14127048       0.10566158       0.02493778       0.00790212      -0.01958069
Li       0.67707583       3.73327393      10.80367581        6      -0.01749026       0.03235202       0.01484004      -0.02660798       0.03099097       0.19698754
Li       5.52161931       4.35231284       2.20248642        7       0.20112410       0.30246210      -0.06024401       0.05301049      -0.06774078      -0.08498418
Li       3.02537096       0.05385175      -0.09828274        8      -0.23271528       0.09934847      -0.40769561       0.06159477      -0.13852444       0.13791384
Li       0.07088220       0.02392957       6.50959396        9       0.04694288      -0.15900081      -0.23310559      -0.15613234      -0.15200116      -0.05995233
Li       3.03365052       4.05917927      -0.02012214       10       0.02282006       0.15588018       0.00288189       0.03025231       0.00774138      -0.06850719
Li      -0.00680552       4.05197808       6.44301775       11      -0.11779910       0.06259918      -0.16543834       0.07772861      -0.06885644       0.17221826
P        0.93193798       1.98181416       1.16768786       12      -0.10948476       0.35615239       0.12449246       0.05067824       0.27470189       0.25357687
P        5.23275626       6.03140475      11.89433631       13       0.15633752      -0.22242396      -0.21858155      -0.04154661      -0.24313797      -0.20395443
P        4.01896728       6.05126525       5.32469963       14       0.28073560       0.42258183       0.08731699       0.32026243      -0.58164275       0.27325809
P        2.11992051       1.99793734       7.67643380       15      -0.20262502      -0.00463282      -0.01921848       0.37109083      -0.02928372       0.39633387
S        5.06296606       2.01784895       1.36815434       16      -0.15068867       0.17455719       1.12764952       0.25783163       0.23029852      -0.12600575
S        1.08202868       6.03631437      11.72313862       17       0.06944657       0.06613243       0.30315145       0.28010207      -0.14996272       0.02214673
S        1.99555436       6.05213609       5.19767278       18       0.03058898       0.11569968      -0.13566813      -0.13351957      -0.07345171      -0.02309118
S        4.16607933       1.95938224       7.83959616       19       0.25854018       0.00627778       0.69691395      -0.19101222       0.19869852      -0.04642095
S        1.68744771       1.98233189      12.25033498       20       0.31979891       0.01542507       0.16246208      -0.08008008       0.18906070       0.02410109
S        4.44208120       6.01025868       0.77164134       21      -0.40474496      -0.57302671      -0.35625128      -0.00983972       0.09202345       0.26564223
S        4.79288174       5.97204598       7.29799653       22       0.53237578      -0.18621823       0.11582374      -0.03984702       0.13862291      -0.40503243
S        1.39113844       1.96293219       5.73820528       23      -0.31584106       0.05846195      -0.47050446      -0.07185638       0.26980242      -0.19824854
S        1.66601699       0.26269063       2.01865905       24      -0.21599811      -0.45949310      -0.34113937      -0.06085330       0.00005565      -0.17016354
S        4.56366970       7.76641658      11.07223868       25       0.17228060       0.51662584       0.17480300      -0.25555015       0.22982216      -0.35762405
S        4.77104292       7.73800221       4.48316077       26      -0.23846690       0.75308901      -0.43194506       0.07930890       0.26662332       0.13607347
S        1.39019961       0.27000505       8.51064687       27      -0.78040182      -0.33177559       0.39287618       0.05134471      -0.12895940      -0.01878891
S        4.48823850       4.28862723      11.04165860       28      -0.15568450       0.17063588       0.51255080       0.05896250       0.16616550       0.09809442
S        1.74977281       3.72075373       1.97923968       29       0.38299153      -0.43832835      -0.32525781      -0.32960367      -0.27088636      -0.01097271
S        1.37466497       3.69992230       8.56371932       30      -0.36536754      -0.15119518       0.13557196       0.11694820      -0.00082589      -0.40617299
S        4.78040629       4.29977417       4.48530568       31       0.66029913       0.01246770      -0.31262895      -0.22852743       0.23820159       0.08213468
