32
Lattice="6.17176593 0.0 0.0 0.0 8.01859859 0.0 0.0 0.0 13.03281824" Properties=species:S:1:pos:R:3:spacegroup_kinds:I:1:momenta:R:3:forces:R:3 spacegroup="P 1" unit_cell=conventional occupancy="_JSON {\"0\": {\"Li\": 1}, \"1\": {\"Li\": 1}, \"2\": {\"Li\": 1}, \"3\": {\"Li\": 1}, \"4\": {\"Li\": 1}, \"5\": {\"Li\": 1}, \"6\": {\"Li\": 1}, \"7\": {\"Li\": 1}, \"8\": {\"Li\": 1}, \"9\": {\"Li\": 1}, \"10\": {\"Li\": 1}, \"11\": {\"Li\": 1}, \"12\": {\"P\": 1}, \"13\": {\"P\": 1}, \"14\": {\"P\": 1}, \"15\": {\"P\": 1}, \"16\": {\"S\": 1}, \"17\": {\"S\": 1}, \"18\": {\"S\": 1}, \"19\": {\"S\": 1}, \"20\": {\"S\": 1}, \"21\": {\"S\": 1}, \"22\": {\"S\": 1}, \"23\": {\"S\": 1}, \"24\": {\"S\": 1}, \"25\": {\"S\": 1}, \"26\": {\"S\": 1}, \"27\": {\"S\": 1}, \"28\": {\"S\": 1}, \"29\": {\"S\": 1}, \"30\": {\"S\": 1}, \"31\": {\"S\": 1}}" energy=-140.31869506835938 free_energy=-140.31869506835938 stress="-0.007170614320784807 -5.206925557388331e-09 2.3507600310779253e-09 -5.206925557388331e-09 -0.008259380236268044 2.3846908892011243e-09 2.3507600310779253e-09 2.3846908892011243e-09 -0.00526628689840436" pbc="T T T"
Li       2.40329652       0.26860172       4.33400832        0       0.00000000       0.00000000       0.00000000      -0.02603502       0.00549069      -0.00432127
Li       3.76846941       7.74999687       8.69880992        1       0.00000000       0.00000000       0.00000000       0.02603721      -0.00549223       0.00432360
Li       5.48917948       7.74999687       2.18240080        2       0.00000000       0.00000000       0.00000000      -0.02603553      -0.00549072       0.00432244
Li       0.68258645       0.26860172      10.85041744        3       0.00000000       0.00000000       0.00000000       0.02603548       0.00549164      -0.00431970
Li       3.76846941       4.27790102       8.69880992        4       0.00000000       0.00000000       0.00000000       0.02603604       0.00549197       0.00432260
Li       2.40329652       3.74069757       4.33400832        5       0.00000000       0.00000000       0.00000000      -0.02603625      -0.00549098      -0.00432188
Li       0.68258645       3.74069757      10.85041744        6       0.00000000       0.00000000       0.00000000       0.02603616      -0.00549196      -0.00431985
Li       5.48917948       4.27790102       2.18240080        7       0.00000000       0.00000000       0.00000000      -0.02603588       0.00549108       0.00432316
Li       3.08588297       0.00000000       0.00000000        8       0.00000000       0.00000000       0.00000000      -0.00000048      -0.00000239       0.00000034
Li       0.00000000       0.00000000       6.51640912        9       0.00000000       0.00000000       0.00000000       0.00000158      -0.00000182      -0.00000068
Li       3.08588297       4.00929929       0.00000000       10       0.00000000       0.00000000       0.00000000       0.00000009       0.00000215       0.00000107
Li       0.00000000       4.00929929       6.51640912       11       0.00000000       0.00000000       0.00000000       0.00000036      -0.00000013      -0.00000029
P        0.94051010       2.00464965       1.16601784       12       0.00000000       0.00000000       0.00000000      -0.02067202      -0.00000006       0.02376035
P        5.23125583       6.01394894      11.86680040       13       0.00000000       0.00000000       0.00000000       0.02066620       0.00000105      -0.02375804
P        4.02639307       6.01394894       5.35039128       14       0.00000000       0.00000000       0.00000000      -0.02066745       0.00000098      -0.02375573
P        2.14537286       2.00464965       7.68242696       15       0.00000000       0.00000000       0.00000000       0.02066885      -0.00000020       0.02375783
S        5.08970823       2.00464965       1.30575389       16       0.00000000       0.00000000       0.00000000      -0.25450543      -0.00000011       0.01678983
S        1.08205770       6.01394894      11.72706435       17       0.00000000       0.00000000       0.00000000       0.25450698      -0.00000038      -0.01679233
S        2.00382526       6.01394894       5.21065523       18       0.00000000       0.00000000       0.00000000      -0.25450626      -0.00000160      -0.01679214
S        4.16794067       2.00464965       7.82216301       19       0.00000000       0.00000000       0.00000000       0.25449982      -0.00000017       0.01678967
S        1.68132889       2.00464965      12.25955363       20       0.00000000       0.00000000       0.00000000       0.10912243       0.00000056      -0.16719547
S        4.49043704       6.01394894       0.77326461       21       0.00000000       0.00000000       0.00000000      -0.10912015       0.00000043       0.16718145
S        4.76721186       6.01394894       7.28967373       22       0.00000000       0.00000000       0.00000000       0.10912083       0.00000015       0.16717917
S        1.40455407       2.00464965       5.74314451       23       0.00000000       0.00000000       0.00000000      -0.10911951       0.00000017      -0.16718143
S        1.67233151       0.29287049       2.00524453       24       0.00000000       0.00000000       0.00000000       0.13957758      -0.21272668       0.08709984
S        4.49943442       7.72572810      11.02757371       25       0.00000000       0.00000000       0.00000000      -0.13957600       0.21272454      -0.08709200
S        4.75821447       7.72572810       4.51116459       26       0.00000000       0.00000000       0.00000000       0.13957463       0.21272562      -0.08709281
S        1.41355146       0.29287049       8.52165365       27       0.00000000       0.00000000       0.00000000      -0.13957553      -0.21272147       0.08709103
S        4.49943442       4.30216979      11.02757371       28       0.00000000       0.00000000       0.00000000      -0.13957751      -0.21272534      -0.08709322
S        1.67233151       3.71642880       2.00524453       29       0.00000000       0.00000000       0.00000000       0.13957912       0.21272762       0.08709782
S        1.41355146       3.71642880       8.52165365       30       0.00000000       0.00000000       0.00000000      -0.13957579       0.21272139       0.08709073
S        4.75821447       4.30216979       4.51116459       31       0.00000000       0.00000000       0.00000000       0.13957545      -0.21272384      -0.08709413
32
Lattice="6.17176593 0.0 0.0 0.0 8.01859859 0.0 0.0 0.0 13.03281824" Properties=species:S:1:pos:R:3:spacegroup_kinds:I:1:momenta:R:3:forces:R:3 spacegroup="P 1" unit_cell=conventional occupancy="_JSON {\"0\": {\"Li\": 1}, \"1\": {\"Li\": 1}, \"2\": {\"Li\": 1}, \"3\": {\"Li\": 1}, \"4\": {\"Li\": 1}, \"5\": {\"Li\": 1}, \"6\": {\"Li\": 1}, \"7\": {\"Li\": 1}, \"8\": {\"Li\": 1}, \"9\": {\"Li\": 1}, \"10\": {\"Li\": 1}, \"11\": {\"Li\": 1}, \"12\": {\"P\": 1}, \"13\": {\"P\": 1}, \"14\": {\"P\": 1}, \"15\": {\"P\": 1}, \"16\": {\"S\": 1}, \"17\": {\"S\": 1}, \"18\": {\"S\": 1}, \"19\": {\"S\": 1}, \"20\": {\"S\": 1}, \"21\": {\"S\": 1}, \"22\": {\"S\": 1}, \"23\": {\"S\": 1}, \"24\": {\"S\": 1}, \"25\": {\"S\": 1}, \"26\": {\"S\": 1}, \"27\": {\"S\": 1}, \"28\": {\"S\": 1}, \"29\": {\"S\": 1}, \"30\": {\"S\": 1}, \"31\": {\"S\": 1}}" energy=-140.3195343017578 free_energy=-140.3195343017578 stress="-0.007070050574839115 -8.006358257262036e-06 1.3801638488075696e-05 -8.006358257262036e-06 -0.00819812435656786 4.722430094261654e-05 1.3801638488075696e-05 4.722430094261654e-05 -0.0051796771585941315" pbc="T T T"
Li       2.40331631       0.27067333       4.33503699        0      -0.09723759       0.19673905       0.05283528      -0.02509401       0.00115402      -0.00764536
Li       3.76898855       7.74872271       8.69413654        1       0.08491222      -0.05034157      -0.19391730       0.02376445      -0.00128547       0.01363096
Li       5.49041054       7.74986137       2.18314872        2       0.02940167       0.05585384      -0.03706976      -0.02869420      -0.00556999       0.00153971
Li       0.68232966       0.26871954      10.85129721        3      -0.00028757       0.03662637       0.10735936       0.02624749       0.00418363      -0.00729903
Li       3.76761395       4.27998306       8.69810197        4      -0.04473935       0.14266226      -0.06722959       0.02835866       0.00001683       0.00394496
Li       2.40252376       3.74126147       4.33330742        5      -0.05048098       0.05582930      -0.00329766      -0.02591174      -0.00545466      -0.00216969
Li       0.68374148       3.74078993      10.84942760        6       0.02093799      -0.01618062      -0.05273740       0.02319203      -0.00552330      -0.00215969
Li       5.48918994       4.27608922       2.18223267        7       0.02309151      -0.08537069      -0.00200425      -0.02677699       0.00841287       0.00397427
Li       3.08426037       0.00168599      -0.00047528        8      -0.08511685       0.06142960      -0.01191035       0.00646384      -0.00418886      -0.00133231
Li      -0.00008566       0.00074297       6.51607095        9      -0.04377080       0.00859596       0.02381661      -0.00063871      -0.00003226      -0.00004154
Li       3.08671457       4.01042840      -0.00138041       10       0.01848793       0.06656070      -0.04900843      -0.00249822      -0.00166926       0.00430658
Li       0.00295080       4.01113146       6.51782502       11       0.11863152       0.09208749       0.10208954      -0.00383040       0.00125999      -0.00530588
P        0.94122160       2.00461310       1.16618758       12       0.13081442      -0.01756800       0.08037283      -0.04428577       0.00673155       0.02533644
P        5.23095260       6.01382574      11.86640429       13      -0.01647075      -0.02864165      -0.04741952       0.00410541      -0.00092235      -0.00793424
P        4.02712775       6.01409154       5.34986174       14       0.25152775       0.06866770      -0.19452410      -0.03271072      -0.00419981      -0.02179390
P        2.14504165       2.00420751       7.68257447       15      -0.02157983      -0.19318545      -0.05494992       0.04038386       0.00761502       0.02582256
S        5.08927442       2.00452187       1.30641227       16       0.03191967      -0.07733194       0.20684200      -0.23804212      -0.00019843       0.01539928
S        1.08137291       6.01367873      11.72797530       17      -0.07236563       0.09676247       0.12041404       0.26100284      -0.00099732      -0.01888934
S        2.00353710       6.01481607       5.21076320       18       0.03680902       0.07491575       0.04303129      -0.24046507      -0.00120685      -0.01661702
S        4.16838281       2.00361462       7.82244440       19       0.08150279      -0.25849088      -0.03123508       0.24170758       0.00641860       0.01638447
S        1.68064159       2.00373334      12.25955908       20      -0.27864826      -0.22149460      -0.01212417       0.11187024       0.00643550      -0.17003436
S        4.49005240       6.01417093       0.77468375       21      -0.06765468       0.02322356       0.33436029      -0.10417496      -0.00132602       0.14307830
S        4.76753754       6.01457050       7.28998611       22       0.10639867       0.09523836       0.04287609       0.11062441      -0.00334555       0.15543908
S        1.40464783       2.00398854       5.74355844       23       0.01935444      -0.06252680       0.06895822      -0.11160553       0.00732047      -0.17104864
S        1.67213675       0.29287739       2.00453773       24      -0.10530478      -0.06241492      -0.12780981       0.14580534      -0.21821813       0.09596727
S        4.49982260       7.72608730      11.02696929       25      -0.00589533       0.13939238      -0.02352719      -0.14208241       0.20457326      -0.08733762
S        4.75817464       7.72625784       4.51064837       26       0.13242816       0.20160822      -0.04930972       0.13959593       0.20849225      -0.08409578
S        1.41339133       0.29309204       8.52118415       27      -0.00275106      -0.09592502      -0.08367971      -0.14415400      -0.22058812       0.09526455
S        4.49885668       4.30133623      11.02684135       28      -0.29550331      -0.18110651      -0.09156230      -0.13236833      -0.20078339      -0.08191459
S        1.67288749       3.71651567       2.00548365       29       0.20785383       0.00315999      -0.13137713       0.13903722       0.20933792       0.08137590
S        1.41417667       3.71693999       8.52182694       30       0.01154999       0.06260383       0.05224056      -0.13854793       0.20777439       0.08469221
S        4.75785344       4.30132031       4.51114804       31      -0.11781482      -0.13137816       0.02949725       0.13972163      -0.20421645      -0.08053730
32
Lattice="6.17176593 0.0 0.0 0.0 8.01859859 0.0 0.0 0.0 13.03281824" Properties=species:S:1:pos:R:3:spacegroup_kinds:I:1:momenta:R:3:forces:R:3 spacegroup="P 1" unit_cell=conventional occupancy="_JSON {\"0\": {\"Li\": 1}, \"1\": {\"Li\": 1}, \"2\": {\"Li\": 1}, \"3\": {\"Li\": 1}, \"4\": {\"Li\": 1}, \"5\": {\"Li\": 1}, \"6\": {\"Li\": 1}, \"7\": {\"Li\": 1}, \"8\": {\"Li\": 1}, \"9\": {\"Li\": 1}, \"10\": {\"Li\": 1}, \"11\": {\"Li\": 1}, \"12\": {\"P\": 1}, \"13\": {\"P\": 1}, \"14\": {\"P\": 1}, \"15\": {\"P\": 1}, \"16\": {\"S\": 1}, \"17\": {\"S\": 1}, \"18\": {\"S\": 1}, \"19\": {\"S\": 1}, \"20\": {\"S\": 1}, \"21\": {\"S\": 1}, \"22\": {\"S\": 1}, \"23\": {\"S\": 1}, \"24\": {\"S\": 1}, \"25\": {\"S\": 1}, \"26\": {\"S\": 1}, \"27\": {\"S\": 1}, \"28\": {\"S\": 1}, \"29\": {\"S\": 1}, \"30\": {\"S\": 1}, \"31\": {\"S\": 1}}" energy=-140.32078552246094 free_energy=-140.32078552246094 stress="-0.006802687421441078 -5.3582934924634174e-05 9.53728158492595e-06 -5.3582934924634174e-05 -0.008086677640676498 0.0001646379241719842 9.53728158492595e-06 0.0001646379241719842 -0.005090728402137756" pbc="T T T"
Li       2.40022767       0.27586263       4.33695798        0      -0.04941832       0.15527617       0.09610643      -0.01509762      -0.01229471      -0.01418504
Li       3.77342688       7.74770394       8.68651906        1       0.20056412      -0.01279889      -0.25535106       0.01680895       0.00311972       0.02878002
Li       5.49073934       7.75371788       2.18315910        2      -0.01570985       0.19436160      -0.02762321      -0.03221281      -0.01370396      -0.00013206
Li       0.68457636       0.27088011      10.85645726        3       0.11266144       0.06781774       0.16644484       0.02007946      -0.00401579      -0.02202269
Li       3.76765602       4.28340342       8.69891164        4       0.06110620       0.05259203       0.03061543       0.02540369      -0.01063478      -0.00294958
Li       2.39691122       3.74464802       4.33196423        5      -0.16490712       0.11496833      -0.05367188      -0.01708261      -0.00982390       0.00220218
Li       0.68541737       3.73843663      10.84758509        6       0.07474399      -0.11819665      -0.04908476       0.01645524       0.00107141       0.00356141
Li       5.48776479       4.27264836       2.18306368        7      -0.03887085      -0.06349293       0.00741774      -0.02358327       0.01638122       0.00178104
Li       3.08001146       0.00264002      -0.00113944        8      -0.08423946       0.03284924      -0.04830253       0.01557321      -0.01170412      -0.00376162
Li      -0.00050243       0.00166054       6.51856502        9       0.03494510       0.04678067       0.09828464      -0.00451338      -0.00199665      -0.00457943
Li       3.08827454       4.01231932      -0.00531190       10       0.01842387       0.05972211      -0.10873778      -0.00764762      -0.00375530       0.01320927
Li       0.00938093       4.01270094       6.52071229       11       0.18677486       0.04197090       0.03908286      -0.01680365       0.00712524      -0.01615291
P        0.94200360       2.00533123       1.16639934       12       0.18730343       0.00824338      -0.01190122      -0.06904320      -0.00565223       0.03433281
P        5.23041435       6.01432878      11.86559732       13      -0.12807979       0.07722267      -0.05838965      -0.00697889      -0.00018488       0.01992198
P        4.02817167       6.01556132       5.34795464       14       0.08192229       0.22154184      -0.15182065      -0.03272579      -0.03138960      -0.00281135
P        2.14353276       2.00209570       7.68301965       15      -0.34877256      -0.32780465       0.19810427       0.07572330       0.04966611       0.03988133
S        5.08885801       2.00446540       1.30847970       16      -0.06377014       0.12976535       0.41545985      -0.22080842       0.00809394       0.00995935
S        1.08138898       6.01486961      11.72784238       17       0.07339762       0.32934353      -0.01377748       0.25020814      -0.01399339      -0.01986776
S        2.00358821       6.01499529       5.21180920       18      -0.16326858      -0.02405422       0.16824199      -0.22895819       0.00971081      -0.01905422
S        4.16816072       2.00151802       7.82199860       19      -0.20078440      -0.35793227      -0.09974467       0.22362457       0.02234438       0.01779858
S        1.67894119       2.00120034      12.25964629       20      -0.30009343      -0.41209371      -0.06357748       0.12016381       0.02367873      -0.17477474
S        4.48910801       6.01589562       0.77711361       21      -0.13118813       0.39136723       0.24506588      -0.09080409      -0.00933024       0.09970500
S        4.76861981       6.01475825       7.29022060       22       0.10841831      -0.05535506      -0.14857573       0.11003119      -0.00577238       0.13002035
S        1.40457215       2.00206235       5.74491641       23       0.04733665      -0.28774442       0.14615223      -0.12214811       0.02450703      -0.18507761
S        1.67083880       0.29224896       2.00372141       24      -0.15774890      -0.12944676      -0.12477410       0.15306860      -0.21535264       0.10522346
S        4.50096788       7.72761493      11.02639113       25       0.21615050       0.16603959      -0.12189102      -0.14579520       0.19331852      -0.08909044
S        4.75981726       7.72728681       4.51037228       26       0.22710165       0.16440345      -0.04520868       0.12982054       0.21099681      -0.08375293
S        1.41459587       0.29200575       8.51953831       27       0.18782325      -0.20383381      -0.35722793      -0.15759613      -0.24336302       0.12458434
S        4.49685799       4.30059784      11.02559935       28      -0.20635169      -0.06150464      -0.07851144      -0.11164172      -0.17810711      -0.06827053
S        1.67594783       3.71598160       2.00461619       29       0.48715258      -0.08991483      -0.13859818       0.13139407       0.21343957       0.07521467
S        1.41306274       3.71764529       8.52343022       30      -0.21266128       0.01513177       0.37450969      -0.11960936       0.17666887       0.06874974
S        4.75719293       4.30031001       4.51070889       31      -0.03996134      -0.12522477      -0.02871641       0.13469523      -0.18904772      -0.06844234
32
Lattice="6.17176593 0.0 0.0 0.0 8.01859859 0.0 0.0 0.0 13.03281824" Properties=species:S:1:pos:R:3:spacegroup_kinds:I:1:momenta:R:3:forces:R:3 spacegroup="P 1" unit_cell=conventional occupancy="_JSON {\"0\": {\"Li\": 1}, \"1\": {\"Li\": 1}, \"2\": {\"Li\": 1}, \"3\": {\"Li\": 1}, \"4\": {\"Li\": 1}, \"5\": {\"Li\": 1}, \"6\": {\"Li\": 1}, \"7\": {\"Li\": 1}, \"8\": {\"Li\": 1}, \"9\": {\"Li\": 1}, \"10\": {\"Li\": 1}, \"11\": {\"Li\": 1}, \"12\": {\"P\": 1}, \"13\": {\"P\": 1}, \"14\": {\"P\": 1}, \"15\": {\"P\": 1}, \"16\": {\"S\": 1}, \"17\": {\"S\": 1}, \"18\": {\"S\": 1}, \"19\": {\"S\": 1}, \"20\": {\"S\": 1}, \"21\": {\"S\": 1}, \"22\": {\"S\": 1}, \"23\": {\"S\": 1}, \"24\": {\"S\": 1}, \"25\": {\"S\": 1}, \"26\": {\"S\": 1}, \"27\": {\"S\": 1}, \"28\": {\"S\": 1}, \"29\": {\"S\": 1}, \"30\": {\"S\": 1}, \"31\": {\"S\": 1}}" energy=-140.31976318359375 free_energy=-140.31976318359375 stress="-0.006538824178278446 -0.00011472761252662167 4.8322643124265596e-05 -0.00011472761252662167 -0.008003638125956059 0.0003380200359970331 4.8322643124265596e-05 0.0003380200359970331 -0.005167764611542225" pbc="T T T"
Li       2.39602338       0.28117757       4.33972106        0      -0.15673532       0.19094233       0.04827003      -0.00064492      -0.02702684      -0.02063764
Li       3.78047566       7.74589562       8.67787351        1       0.25869900      -0.08389936      -0.21896048       0.00658221       0.00715639       0.04707705
Li       5.48978730       7.76147653       2.18379715        2      -0.07002190       0.16089770       0.01022754      -0.03663485      -0.02878482      -0.00180739
Li       0.69038238       0.27341452      10.86039997        3       0.26748309       0.06686998       0.08874441       0.00466561      -0.01907100      -0.03512602
Li       3.76853321       4.28626418       8.70007804        4       0.03513911       0.05825979       0.08354179       0.02032689      -0.02018442      -0.00927912
Li       2.39025110       3.74897539       4.33136570        5      -0.12893598       0.15487790      -0.00832518      -0.00748272      -0.01602618       0.00415506
Li       0.68729484       3.73200390      10.84513895        6       0.03986120      -0.19499658      -0.02472709       0.00587077       0.01981396       0.01372231
Li       5.48700786       4.27001269       2.18540883        7       0.03311767      -0.04363443       0.14053066      -0.01846569       0.02787858      -0.00538553
Li       3.07573570       0.00443968      -0.00403391        8      -0.13351280       0.08375024      -0.06787833       0.02354399      -0.02079447      -0.00363130
Li       0.00295309       0.00468472       6.52217425        9       0.12277320       0.07570956       0.12141646      -0.01687323      -0.01039581      -0.01917709
Li       3.08638324       4.01346671      -0.00898302       10      -0.07616619       0.07341331      -0.05775584      -0.00851247       0.00010123       0.01737647
Li       0.01470467       4.01226428       6.52118125       11       0.10673203      -0.04399854      -0.05123284      -0.02715750       0.01206226      -0.02357047
P        0.94320014       2.00365045       1.16604572       12       0.15595720      -0.30910190      -0.21936707      -0.08104822       0.01644417       0.06583150
P        5.22872905       6.01495398      11.86631838       13      -0.16691303       0.18324022       0.24141933       0.02036814       0.01023796       0.01298815
P        4.02860085       6.01722526       5.34616605       14       0.02631521       0.13425361      -0.34374775      -0.03006440      -0.05336911      -0.00390043
P        2.14211312       1.99945948       7.68572279       15       0.00358149      -0.32448562       0.37774793       0.09319605       0.11129884       0.01876630
S        5.08908515       2.00660341       1.31166033       16       0.04166591       0.34054544       0.56955535      -0.20344208       0.00771170       0.00061102
S        1.08125437       6.01762202      11.72774443       17      -0.02491842       0.28688583      -0.04348484       0.23115972      -0.03790853      -0.01896989
S        2.00325330       6.01563860       5.21318423       18      -0.09325523       0.11890292       0.08945363      -0.22326462       0.01923807      -0.02060749
S        4.16687137       1.99853405       7.82106966       19      -0.32961558      -0.50403379       0.02652094       0.22419712       0.04349332       0.02520057
S        1.67748333       1.99767447      12.25917427       20      -0.03015174      -0.49274403      -0.07055377       0.12922245       0.03849886      -0.17508107
S        4.48776036       6.01908726       0.77725885       21      -0.29634366       0.48040885      -0.21870671      -0.08815305      -0.01999664       0.10278001
S        4.76936257       6.01430588       7.28847564       22       0.14004137      -0.17405845      -0.25583957       0.11788897      -0.00978252       0.12806278
S        1.40535319       1.99904077       5.74612685       23      -0.03876948      -0.39975097       0.12751881      -0.13047491       0.04976751      -0.17792878
S        1.67050933       0.29027360       2.00426705       24      -0.09556763      -0.28345009       0.19566929       0.15326481      -0.20521224       0.10247959
S        4.50258089       7.72879605      11.02585305       25       0.30248684       0.19028085      -0.04087648      -0.15181106       0.19513653      -0.09969198
S        4.76120327       7.72841639       4.51037149       26       0.10732543       0.14333216      -0.02393431       0.12043060       0.21577351      -0.08199080
S        1.41602496       0.29079410       8.51744872       27       0.13833488      -0.17825718      -0.13610877      -0.17313209      -0.28402907       0.16769558
S        4.49526936       4.30110781      11.02474259       28      -0.29799111       0.19768193      -0.19560321      -0.09868484      -0.17432243      -0.05896608
S        1.68008101       3.71580386       2.00309965       29       0.64798489      -0.02331784      -0.23195394       0.11319797       0.18894592       0.05891317
S        1.41056098       3.71798893       8.52650327       30      -0.32840896       0.08296122       0.37378506      -0.09426730       0.14017583       0.04429746
S        4.75613583       4.30009811       4.50895302       31      -0.16019150       0.03251495      -0.28534502       0.12619872      -0.17683068      -0.05420586
32
Lattice="6.17176593 0.0 0.0 0.0 8.01859859 0.0 0.0 0.0 13.03281824" Properties=species:S:1:pos:R:3:spacegroup_kinds:I:1:momenta:R:3:forces:R:3 spacegroup="P 1" unit_cell=conventional occupancy="_JSON {\"0\": {\"Li\": 1}, \"1\": {\"Li\": 1}, \"2\": {\"Li\": 1}, \"3\": {\"Li\": 1}, \"4\": {\"Li\": 1}, \"5\": {\"Li\": 1}, \"6\": {\"Li\": 1}, \"7\": {\"Li\": 1}, \"8\": {\"Li\": 1}, \"9\": {\"Li\": 1}, \"10\": {\"Li\": 1}, \"11\": {\"Li\": 1}, \"12\": {\"P\": 1}, \"13\": {\"P\": 1}, \"14\": {\"P\": 1}, \"15\": {\"P\": 1}, \"16\": {\"S\": 1}, \"17\": {\"S\": 1}, \"18\": {\"S\": 1}, \"19\": {\"S\": 1}, \"20\": {\"S\": 1}, \"21\": {\"S\": 1}, \"22\": {\"S\": 1}, \"23\": {\"S\": 1}, \"24\": {\"S\": 1}, \"25\": {\"S\": 1}, \"26\": {\"S\": 1}, \"27\": {\"S\": 1}, \"28\": {\"S\": 1}, \"29\": {\"S\": 1}, \"30\": {\"S\": 1}, \"31\": {\"S\": 1}}" energy=-140.31640625 free_energy=-140.31640625 stress="-0.006338856648653746 -0.0001242472935700789 0.0001850955159170553 -0.0001242472935700789 -0.007839377038180828 0.000542265479452908 0.0001850955159170553 0.000542265479452908 -0.005287297070026398" pbc="T T T"
Li       2.38977266       0.28642266       4.34233334        0      -0.14497084       0.10517238       0.12361000       0.01766573      -0.03964960      -0.02608180
Li       3.78853815       7.74050166       8.67016723        1       0.20761354      -0.18488796      -0.19569000      -0.00654286       0.01722580       0.06485772
Li       5.48776261       7.76866885       2.18381313        2      -0.05207197       0.25062730       0.00213209      -0.04080344      -0.04164185      -0.00184667
Li       0.70014761       0.27509292      10.86257591        3       0.29559134       0.03175966       0.08209322      -0.01829478      -0.03671237      -0.04694686
Li       3.77270197       4.29133729       8.70520038        4       0.17270941       0.19394442       0.24391994       0.00604267      -0.03532951      -0.01956476
Li       2.38560130       3.75467003       4.33077703        5      -0.13435287       0.14070975      -0.02555015      -0.00361158      -0.02783249       0.00530083
Li       0.68879847       3.72188613      10.84216188        6       0.06202527      -0.36728174      -0.14456336      -0.00917801       0.04523008       0.02247549
Li       5.48805128       4.27135980       2.19175579        7       0.00732607       0.12476124       0.18117376      -0.01196888       0.03072895      -0.02195918
Li       3.07047947       0.00675096      -0.00540519        8      -0.14783983       0.15629842       0.03104878       0.03472345      -0.03074378      -0.00707355
Li       0.00911026       0.00743695       6.52953677        9       0.20097623       0.05374455       0.26796992      -0.03649442      -0.02258859      -0.04349028
Li       3.08142997       4.01751484      -0.00944463       10      -0.16910937       0.14407421      -0.08603899      -0.00475219       0.00307996       0.01070698
Li       0.01616049       4.01074276       6.51975067       11      -0.01342849      -0.09535980      -0.04559300      -0.03056306       0.01269197      -0.02229926
P        0.94460903       2.00072420       1.16405184       12      -0.01870653      -0.31556259      -0.14960875      -0.09482110       0.06625629       0.12684126
P        5.22734655       6.01666629      11.86918877       13      -0.23009789       0.29939483       0.44743715       0.03580064      -0.00307947      -0.05159422
P        4.02873326       6.01905538       5.34333264       14       0.04939908       0.27165558      -0.25472743      -0.01261811      -0.06802422       0.01767631
P        2.14194623       1.99725284       7.68807433       15       0.03161791      -0.17717003       0.28369714       0.07807062       0.17311847      -0.01102673
S        5.08998035       2.00937720       1.31579424       16       0.17271327       0.31918169       0.42519474      -0.18718152       0.00866502      -0.00992063
S        1.08072346       6.01998556      11.72708682       17      -0.02907201       0.20785055      -0.12842304       0.22108591      -0.06362291      -0.01319556
S        2.00314784       6.01733045       5.21256358       18      -0.02631230       0.29959522      -0.12716293      -0.21994486       0.02445296      -0.01865900