32
Lattice="6.17176593 0.0 0.0 0.0 8.01859859 0.0 0.0 0.0 13.03281824" Properties=species:S:1:pos:R:3:spacegroup_kinds:I:1:momenta:R:3:forces:R:3 spacegroup="P 1" unit_cell=conventional occupancy="_JSON {\"0\": {\"Li\": 1}, \"1\": {\"Li\": 1}, \"2\": {\"Li\": 1}, \"3\": {\"Li\": 1}, \"4\": {\"Li\": 1}, \"5\": {\"Li\": 1}, \"6\": {\"Li\": 1}, \"7\": {\"Li\": 1}, \"8\": {\"Li\": 1}, \"9\": {\"Li\": 1}, \"10\": {\"Li\": 1}, \"11\": {\"Li\": 1}, \"12\": {\"P\": 1}, \"13\": {\"P\": 1}, \"14\": {\"P\": 1}, \"15\": {\"P\": 1}, \"16\": {\"S\": 1}, \"17\": {\"S\": 1}, \"18\": {\"S\": 1}, \"19\": {\"S\": 1}, \"20\": {\"S\": 1}, \"21\": {\"S\": 1}, \"22\": {\"S\": 1}, \"23\": {\"S\": 1}, \"24\": {\"S\": 1}, \"25\": {\"S\": 1}, \"26\": {\"S\": 1}, \"27\": {\"S\": 1}, \"28\": {\"S\": 1}, \"29\": {\"S\": 1}, \"30\": {\"S\": 1}, \"31\": {\"S\": 1}}" energy=-140.18995666503906 free_energy=-140.18995666503906 stress="0.0007139955996535718 -0.00017380432109348476 0.0014252206310629845 -0.00017380432109348476 -0.002263379516080022 -3.247468157496769e-06 0.0014252206310629845 -3.247468157496769e-06 -0.0027193997520953417" pbc="T T T"
Li       2.43196434       0.34361480       4.30515434        0       0.24530425       0.10149929      -0.15577352       0.03084094      -0.14349230       0.05100030
Li       3.78277107       7.79552357       8.64127077        1       0.06695713      -0.00550140       0.04577565       0.00877795      -0.06692445       0.10624493
Li       5.42087850       7.80234527       2.23864065        2       0.04179251      -0.05514879       0.14465626       0.08138119      -0.05337206      -0.10327922
Li       0.65515648       0.25641812      10.72720207        3      -0.20756665       0.01211222      -0.03966991       0.03522415      -0.00763278       0.36455816
Li       3.86259608       4.23728184       8.71593231        4       0.33781972       0.17564625       0.14730818      -0.12252567       0.11799277       0.03915595
Li       2.45440834       3.65640907       4.35373864        5       0.39335279      -0.19667739      -0.25051701      -0.04479861       0.13824205      -0.10247838
Li       0.69895904       3.65384393      10.71420583        6      -0.15546658      -0.11102724      -0.37276394      -0.08402964       0.11737576       0.42994016
Li       5.54547863       4.19898150       2.19461250        7       0.24729650       0.18587725      -0.11205716      -0.13447680       0.23561558      -0.00787450
Li       3.05372627      -0.05493611      -0.03778046        8      -0.13636241      -0.23172032       0.06531806      -0.07529716      -0.02331851       0.08785345
Li       0.04241006       0.01007146       6.53535777        9       0.07798681      -0.52867492      -0.19386725      -0.08309432      -0.09227169      -0.09565814
Li       3.08833014       4.01701293       0.05692181       10      -0.07356634      -0.02864556       0.09558916       0.02039191       0.02879553      -0.04755906
Li       0.04100448       4.02971700       6.45392631       11      -0.17625091       0.39860929      -0.15047452      -0.00716150       0.07864772       0.04119711
P        0.96355240       1.99139074       1.17816838       12       0.67907561      -0.41056713       0.44991544      -0.04944322       0.20071387       0.14720027
P        5.21649944       6.02119765      11.84578765       13       0.14263112       0.57841652       0.23039793       0.57472807       0.03384247       0.39224666
P        3.97890726       5.98664700       5.34784341       14      -0.01137683      -0.07619237       0.59129716       0.26946387       0.18441302       0.01283194
P        2.14321394       2.02678880       7.67298821       15      -0.64908807       0.24359578       0.07268975      -0.14126088       0.02084079       0.04892733
S        5.08788919       2.02456641       1.31388129       16      -0.04065605       0.43603758       0.68391690       0.14290237      -0.12725924      -0.03629722
S        1.11740939       5.99173016      11.69203178       17       0.13928050      -0.75930831      -0.57934369      -0.57620949       0.07010115      -0.10070564
S        1.94930881       5.99844972       5.15454852       18      -0.25406234      -0.60483576      -0.53276064       0.14023918       0.02552881       0.01814590
S        4.17730457       2.03889452       7.81614064       19       0.09908555       0.35212869       0.00010805      -0.03284491      -0.08798860      -0.06004911
S        1.71392153       1.99137665      12.27513181       20       0.18290479      -0.24813246       0.06806046      -0.02692690      -0.02857514      -0.10754506
S        4.52001661       6.02072648       0.80607150       21       0.61428711       0.17766201       0.04509384       0.00693596      -0.00064459      -0.30099380
S        4.74231073       6.02677376       7.30853472       22      -0.71404623       0.68815469      -0.10634255      -0.03570479      -0.09954938      -0.15866755
S        1.38625507       2.01986141       5.71352654       23      -0.47248720       0.07664692      -0.31507798       0.01075216      -0.10141313       0.26574054
S        1.69611272       0.27073062       2.03158561       24       0.48695116      -0.43052090      -0.20435282      -0.11399866       0.04953370      -0.08887999
S        4.47060443       7.76165837      11.03061831       25       0.24388168       0.29850431      -0.07713027       0.05875628      -0.17478412      -0.08931644
S        4.78513045       7.71162840       4.53298427       26      -0.55035220       0.21632984      -0.07946551      -0.15366951      -0.04903970       0.10343656
S        1.41296111       0.29947381       8.53712248       27      -0.00373791      -0.00848971      -0.08372791       0.09874522       0.05978762      -0.32684875
S        4.47735746       4.28013205      11.06755264       28      -0.09894503      -0.57651868       0.14891860      -0.02438379      -0.04174242      -0.14727345
S        1.69468960       3.74004934       2.03406035       29       0.00400453       0.09565531       0.53592006       0.02695131      -0.29068065      -0.06620917
S        1.37328928       3.73795585       8.51932253       30      -0.15910889       0.20385652      -0.25513907       0.23016158      -0.01218793      -0.33957231
S        4.76211861       4.27722097       4.50679282       31      -0.29953816       0.03122847       0.18349825      -0.03042632       0.03944590       0.07072864
