32
Lattice="6.17176593 0.0 0.0 0.0 8.01859859 0.0 0.0 0.0 13.03281824" Properties=species:S:1:pos:R:3:spacegroup_kinds:I:1:momenta:R:3:forces:R:3 spacegroup="P 1" unit_cell=conventional occupancy="_JSON {\"0\": {\"Li\": 1}, \"1\": {\"Li\": 1}, \"2\": {\"Li\": 1}, \"3\": {\"Li\": 1}, \"4\": {\"Li\": 1}, \"5\": {\"Li\": 1}, \"6\": {\"Li\": 1}, \"7\": {\"Li\": 1}, \"8\": {\"Li\": 1}, \"9\": {\"Li\": 1}, \"10\": {\"Li\": 1}, \"11\": {\"Li\": 1}, \"12\": {\"P\": 1}, \"13\": {\"P\": 1}, \"14\": {\"P\": 1}, \"15\": {\"P\": 1}, \"16\": {\"S\": 1}, \"17\": {\"S\": 1}, \"18\": {\"S\": 1}, \"19\": {\"S\": 1}, \"20\": {\"S\": 1}, \"21\": {\"S\": 1}, \"22\": {\"S\": 1}, \"23\": {\"S\": 1}, \"24\": {\"S\": 1}, \"25\": {\"S\": 1}, \"26\": {\"S\": 1}, \"27\": {\"S\": 1}, \"28\": {\"S\": 1}, \"29\": {\"S\": 1}, \"30\": {\"S\": 1}, \"31\": {\"S\": 1}}" energy=-140.31869506835938 free_energy=-140.31869506835938 stress="-0.007170627824962139 1.4883122512188152e-09 1.392839710234739e-08 1.4883122512188152e-09 -0.008259405381977558 7.542489299794397e-09 1.392839710234739e-08 7.542489299794397e-09 -0.0052662985399365425" pbc="T T T"
Li       2.40329652       0.26860172       4.33400832        0       0.00000000       0.00000000       0.00000000      -0.02603559       0.00549105      -0.00432151
Li       3.76846941       7.74999687       8.69880992        1       0.00000000       0.00000000       0.00000000       0.02603678      -0.00549216       0.00432312
Li       5.48917948       7.74999687       2.18240080        2       0.00000000       0.00000000       0.00000000      -0.02603550      -0.00549067       0.00432214
Li       0.68258645       0.26860172      10.85041744        3       0.00000000       0.00000000       0.00000000       0.02603513       0.00549167      -0.00431937
Li       3.76846941       4.27790102       8.69880992        4       0.00000000       0.00000000       0.00000000       0.02603647       0.00549217       0.00432238
Li       2.40329652       3.74069757       4.33400832        5       0.00000000       0.00000000       0.00000000      -0.02603559      -0.00549073      -0.00432133
Li       0.68258645       3.74069757      10.85041744        6       0.00000000       0.00000000       0.00000000       0.02603596      -0.00549237      -0.00431965
Li       5.48917948       4.27790102       2.18240080        7       0.00000000       0.00000000       0.00000000      -0.02603593       0.00549081       0.00432245
Li       3.08588297       0.00000000       0.00000000        8       0.00000000       0.00000000       0.00000000      -0.00000052      -0.00000086      -0.00000082
Li       0.00000000       0.00000000       6.51640912        9       0.00000000       0.00000000       0.00000000      -0.00000023       0.00000063      -0.00000029
Li       3.08588297       4.00929929       0.00000000       10       0.00000000       0.00000000       0.00000000      -0.00000011       0.00000159      -0.00000054
Li       0.00000000       4.00929929       6.51640912       11       0.00000000       0.00000000       0.00000000       0.00000030       0.00000020      -0.00000056
P        0.94051010       2.00464965       1.16601784       12       0.00000000       0.00000000       0.00000000      -0.02067213      -0.00000176       0.02376037
P        5.23125583       6.01394894      11.86680040       13       0.00000000       0.00000000       0.00000000       0.02066660       0.00000046      -0.02376049
P        4.02639307       6.01394894       5.35039128       14       0.00000000       0.00000000       0.00000000      -0.02066780       0.00000089      -0.02375586
P        2.14537286       2.00464965       7.68242696       15       0.00000000       0.00000000       0.00000000       0.02066837      -0.00000080       0.02375847
S        5.08970823       2.00464965       1.30575389       16       0.00000000       0.00000000       0.00000000      -0.25450617       0.00000049       0.01679090
S        1.08205770       6.01394894      11.72706435       17       0.00000000       0.00000000       0.00000000       0.25450680       0.00000029      -0.01679209
S        2.00382526       6.01394894       5.21065523       18       0.00000000       0.00000000       0.00000000      -0.25450602       0.00000014      -0.01679153
S        4.16794067       2.00464965       7.82216301       19       0.00000000       0.00000000       0.00000000       0.25450104      -0.00000018       0.01678923
S        1.68132889       2.00464965      12.25955363       20       0.00000000       0.00000000       0.00000000       0.10912203      -0.00000010      -0.16719607
S        4.49043704       6.01394894       0.77326461       21       0.00000000       0.00000000       0.00000000      -0.10912056       0.00000022       0.16718167
S        4.76721186       6.01394894       7.28967373       22       0.00000000       0.00000000       0.00000000       0.10912039       0.00000038       0.16717920
S        1.40455407       2.00464965       5.74314451       23       0.00000000       0.00000000       0.00000000      -0.10911943       0.00000038      -0.16718182
S        1.67233151       0.29287049       2.00524453       24       0.00000000       0.00000000       0.00000000       0.13957848      -0.21272576       0.08710012
S        4.49943442       7.72572810      11.02757371       25       0.00000000       0.00000000       0.00000000      -0.13957541       0.21272510      -0.08709328
S        4.75821447       7.72572810       4.51116459       26       0.00000000       0.00000000       0.00000000       0.13957550       0.21272449      -0.08709174
S        1.41355146       0.29287049       8.52165365       27       0.00000000       0.00000000       0.00000000      -0.13957584      -0.21272177       0.08709131
S        4.49943442       4.30216979      11.02757371       28       0.00000000       0.00000000       0.00000000      -0.13957748      -0.21272562      -0.08709393
S        1.67233151       3.71642880       2.00524453       29       0.00000000       0.00000000       0.00000000       0.13957851       0.21272644       0.08710028
S        1.41355146       3.71642880       8.52165365       30       0.00000000       0.00000000       0.00000000      -0.13957499       0.21272071       0.08709165
S        4.75821447       4.30216979       4.51116459       31       0.00000000       0.00000000       0.00000000       0.13957703      -0.21272537      -0.08709261
32
Lattice="6.17176593 0.0 0.0 0.0 8.01859859 0.0 0.0 0.0 13.03281824" Properties=species:S:1:pos:R:3:spacegroup_kinds:I:1:momenta:R:3:forces:R:3 spacegroup="P 1" unit_cell=conventional occupancy="_JSON {\"0\": {\"Li\": 1}, \"1\": {\"Li\": 1}, \"2\": {\"Li\": 1}, \"3\": {\"Li\": 1}, \"4\": {\"Li\": 1}, \"5\": {\"Li\": 1}, \"6\": {\"Li\": 1}, \"7\": {\"Li\": 1}, \"8\": {\"Li\": 1}, \"9\": {\"Li\": 1}, \"10\": {\"Li\": 1}, \"11\": {\"Li\": 1}, \"12\": {\"P\": 1}, \"13\": {\"P\": 1}, \"14\": {\"P\": 1}, \"15\": {\"P\": 1}, \"16\": {\"S\": 1}, \"17\": {\"S\": 1}, \"18\": {\"S\": 1}, \"19\": {\"S\": 1}, \"20\": {\"S\": 1}, \"21\": {\"S\": 1}, \"22\": {\"S\": 1}, \"23\": {\"S\": 1}, \"24\": {\"S\": 1}, \"25\": {\"S\": 1}, \"26\": {\"S\": 1}, \"27\": {\"S\": 1}, \"28\": {\"S\": 1}, \"29\": {\"S\": 1}, \"30\": {\"S\": 1}, \"31\": {\"S\": 1}}" energy=-140.31944274902344 free_energy=-140.31944274902344 stress="-0.006998402066528797 2.6866864573094063e-05 6.090209808462532e-06 2.6866864573094063e-05 -0.0081807691603899 -9.549437527311966e-05 6.090209808462532e-06 -9.549437527311966e-05 -0.005307959858328104" pbc="T T T"
Li       2.40313209       0.27083141       4.33234960        0      -0.00121995       0.16677561      -0.08822002      -0.02263408      -0.00260685      -0.00175416
Li       3.76905505       7.74876958       8.69906029        1       0.06063226      -0.07309998      -0.00135269       0.02179515      -0.00099418       0.00495865
Li       5.48908340       7.75201192       2.18358681        2       0.00185565       0.09722275       0.04351083      -0.02885291      -0.00925514       0.00239468
Li       0.68250403       0.27085063      10.84868163        3       0.02112311       0.11829935      -0.10731956       0.02472638      -0.00042426       0.00183608
Li       3.76834925       4.27742642       8.69760398        4       0.01603440      -0.04693606      -0.06170144       0.02441049       0.00836143       0.00837651
Li       2.40272968       3.74155058       4.33398466        5      -0.09607275       0.09245438       0.04866546      -0.02618346      -0.00625230      -0.00417735
Li       0.68087255       3.74063094      10.84909554        6      -0.05127228      -0.00345076      -0.07994702       0.03056549      -0.00486578      -0.00023196
Li       5.48921062       4.27753948       2.18379251        7      -0.02179241      -0.06870266       0.06726664      -0.02392861       0.00765526       0.00068073
Li       3.08593171      -0.00202557      -0.00021532        8       0.02728005      -0.11932697       0.03110396      -0.00573629       0.00329467      -0.00020591
Li      -0.00232288       0.00201527       6.51538182        9      -0.08394108       0.10774584      -0.04956430       0.00521658      -0.00009040       0.00594413
Li       3.08744317       4.01036248       0.00051591       10       0.06835899       0.06683887       0.03344604      -0.00484527      -0.00369750      -0.00115328
Li       0.00065894       4.00810153       6.51741474       11       0.05747406      -0.06035079       0.05802386      -0.00135905       0.00241289      -0.00368528
P        0.94068051       2.00506699       1.16716717       12       0.02397244       0.12967024       0.18675304      -0.01299366      -0.00927693      -0.00537501
P        5.22983218       6.01333632      11.86660405       13      -0.33429829      -0.12492142      -0.03291697       0.06402569       0.01242580      -0.03238076
P        4.02705918       6.01298742       5.35125875       14       0.03562460      -0.22317263       0.12103353      -0.05101251       0.01659284      -0.03658567
P        2.14638343       2.00509443       7.68172960       15       0.10442148       0.11175800      -0.15107465      -0.00462165      -0.01969637       0.04559089
S        5.08994224       2.00580714       1.30526883       16       0.10163463       0.27851570      -0.12951121      -0.25672680      -0.00153168       0.02061784
S        1.08246220       6.01333072      11.72725188       17       0.02286586      -0.01568724       0.12121805       0.22711171       0.00416835      -0.01952623
S        2.00258448       6.01331848       5.20939979       18      -0.29131712      -0.12199004      -0.25222491      -0.22093391       0.00465008      -0.01296170
S        4.16819112       2.00666290       7.82169728       19       0.14666533       0.44950976      -0.12747072       0.26372281      -0.01003471       0.01773661
S        1.68143352       2.00560246      12.25936512       20       0.01062991       0.15014906      -0.13026110       0.10589899      -0.00252679      -0.15092090
S        4.49125011       6.01364693       0.77245869       21       0.11507314      -0.11253577      -0.15330836      -0.11513396       0.00124016       0.18684362
S        4.76751272       6.01357630       7.29023809       22       0.06621461      -0.08920132       0.00324369       0.10873317      -0.00161015       0.16652331
S        1.40520594       2.00384302       5.74332529       23       0.13047925      -0.15395515       0.05589666      -0.11104570       0.00425920      -0.17459059
S        1.67164118       0.29183191       2.00496528       24      -0.10615244      -0.21381603       0.12963349       0.13908195      -0.20667131       0.08649434
S        4.49837243       7.72577154      11.02824888       25      -0.16243969       0.06444556       0.15434009      -0.13656688       0.21037437      -0.09056360
S        4.75908813       7.72601011       4.51214480       26       0.27717514      -0.07009489       0.25198677       0.12966095       0.20196652      -0.08392039
S        1.41255987       0.29265868       8.52267279       27      -0.13622790       0.03865623       0.17817761      -0.12247273      -0.19145738       0.06806974
S        4.49928212       4.30191501      11.02790120       28      -0.01024985       0.05923646       0.05849892      -0.14741777      -0.22053815      -0.09658591
S        1.67346252       3.71606097       2.00505428       29       0.19544575      -0.08476305       0.03190072       0.14019975       0.21998493       0.09627736
S        1.41306262       3.71619089       8.52168120       30      -0.21930637      -0.14334869       0.02411996      -0.13530509       0.21126819       0.08371166
S        4.75815662       4.30222453       4.51038544       31       0.03132947      -0.20592435      -0.23394635       0.14262126      -0.21712479      -0.08143738
32
Lattice="6.17176593 0.0 0.0 0.0 8.01859859 0.0 0.0 0.0 13.03281824" Properties=species:S:1:pos:R:3:spacegroup_kinds:I:1:momenta:R:3:forces:R:3 spacegroup="P 1" unit_cell=conventional occupancy="_JSON {\"0\": {\"Li\": 1}, \"1\": {\"Li\": 1}, \"2\": {\"Li\": 1}, \"3\": {\"Li\": 1}, \"4\": {\"Li\": 1}, \"5\": {\"Li\": 1}, \"6\": {\"Li\": 1}, \"7\": {\"Li\": 1}, \"8\": {\"Li\": 1}, \"9\": {\"Li\": 1}, \"10\": {\"Li\": 1}, \"11\": {\"Li\": 1}, \"12\": {\"P\": 1}, \"13\": {\"P\": 1}, \"14\": {\"P\": 1}, \"15\": {\"P\": 1}, \"16\": {\"S\": 1}, \"17\": {\"S\": 1}, \"18\": {\"S\": 1}, \"19\": {\"S\": 1}, \"20\": {\"S\": 1}, \"21\": {\"S\": 1}, \"22\": {\"S\": 1}, \"23\": {\"S\": 1}, \"24\": {\"S\": 1}, \"25\": {\"S\": 1}, \"26\": {\"S\": 1}, \"27\": {\"S\": 1}, \"28\": {\"S\": 1}, \"29\": {\"S\": 1}, \"30\": {\"S\": 1}, \"31\": {\"S\": 1}}" energy=-140.32040405273438 free_energy=-140.32040405273438 stress="-0.006622612942010164 2.0546813175315037e-05 4.439696203917265e-05 2.0546813175315037e-05 -0.008077403530478477 -0.0002505097072571516 4.439696203917265e-05 -0.0002505097072571516 -0.005348769947886467" pbc="T T T"
Li       2.40394533       0.27932507       4.32921741        0       0.01876700       0.27055174      -0.04789302      -0.01384643      -0.02481028       0.00315760
Li       3.77253329       7.74826318       8.69808272        1       0.11840735      -0.00303587      -0.05119890       0.01262491       0.00192727       0.00736565
Li       5.48815266       7.75513971       2.18399749        2      -0.06733953       0.02023163       0.01310225      -0.03130677      -0.01634015       0.00388768
Li       0.68542591       0.27510841      10.84528147        3       0.10295955       0.17926511      -0.12402447       0.01303931      -0.01355989       0.01355387
Li       3.77171452       4.27473901       8.69509414        4       0.13790373      -0.07413861      -0.01565639       0.01660712       0.01698072       0.01341502
Li       2.40009662       3.74311277       4.33371366        5      -0.07719323       0.00251021      -0.01747959      -0.02285362      -0.00698438      -0.00502855
Li       0.68200920       3.74021667      10.84784145        6       0.07728428      -0.09050370       0.02060329       0.03075533      -0.00336908       0.00664950
Li       5.48868289       4.27578405       2.18936244        7       0.00578600      -0.08674975       0.25386194      -0.01906004       0.01326917      -0.01022855
Li       3.08714905      -0.00532414      -0.00245680        8       0.03942158      -0.11632039      -0.08337160      -0.01794219       0.00864310       0.00736586
Li      -0.00343442       0.00710855       6.51708677        9       0.00475824       0.19226805       0.08217918       0.00566858      -0.00683337       0.00610224
Li       3.09266966       4.01362935       0.00118286       10       0.21355155       0.08664819       0.00286514      -0.01836951      -0.01399357       0.00425157
Li       0.00672663       4.00502900       6.51988102       11       0.22062840      -0.09583543       0.10513248      -0.01644467       0.01502006      -0.02064226
P        0.93955535       2.00552137       1.16802196       12      -0.17286812       0.06467254       0.01822642       0.02741598      -0.01311939      -0.02814884
P        5.22776052       6.01206082      11.86648043       13      -0.28768896      -0.00367345      -0.14742975       0.11273001       0.06779133      -0.04058427
P        4.02669620       6.01144099       5.35114667       14      -0.13362280      -0.21906993      -0.16458469      -0.08309645       0.01942028      -0.03654981
P        2.14758750       2.00667190       7.68111073       15       0.25097970       0.26218312      -0.12364535      -0.02731863      -0.05534607       0.06231144
S        5.08966411       2.00679658       1.30475276       16      -0.13986880       0.02725727      -0.04523792      -0.26705512       0.00110833       0.02162209
S        1.08181186       6.01216929      11.72774536       17      -0.05714819      -0.19220280       0.09071935       0.20699777       0.01281610      -0.02511447
S        1.99904061       6.01191680       5.20674710       18      -0.51483160      -0.08018644      -0.45343834      -0.15955165       0.02067379      -0.00836229
S        4.16918073       2.00959882       7.82073028       19       0.22221964       0.31466003      -0.12389023       0.26252669      -0.02184399       0.01882096
S        1.68294800       2.00512428      12.25913068       20       0.28213103      -0.32327731       0.10104894       0.09723406       0.00306073      -0.12485678
S        4.49252392       6.01296473       0.77182624       21      -0.00153301      -0.16480118      -0.09928798      -0.12290896       0.00318046       0.21348281
S        4.76887525       6.01290771       7.29030712       22       0.35284830      -0.09014983       0.07279771       0.09948148      -0.00742535       0.15674768
S        1.40618648       2.00313866       5.74288617       23       0.16944899      -0.12695296      -0.07220476      -0.11068539       0.01029185      -0.17155889
S        1.67005779       0.29088238       2.00582324       24      -0.19759006      -0.10706246       0.23630469       0.13648120      -0.19484958       0.07632555
S        4.49576393       7.72663757      11.02904338       25      -0.34564186       0.13522495       0.07021764      -0.11692127       0.19259807      -0.08939153
S        4.76227957       7.72492822       4.51492675       26       0.41345218      -0.24418743       0.39869553       0.11061118       0.19931066      -0.09105781
S        1.41131820       0.29358234       8.52457558       27      -0.15074434       0.08304659       0.33811336      -0.09342828      -0.16569614       0.04169103
S        4.49914743       4.30309848      11.02904844       28      -0.19088123       0.28920898       0.29476181      -0.16307028      -0.25889784      -0.12461253
S        1.67525147       3.71589948       2.00553712       29       0.20764642       0.07344283      -0.04450655       0.12945184       0.21270669       0.09073560
S        1.41064312       3.71583155       8.52096675       30      -0.36472077       0.08409813      -0.28153439      -0.11706543       0.21727872       0.08899955
S        4.75743267       4.30092637       4.50856031       31      -0.13652144      -0.06712180      -0.20324579       0.13929909      -0.21300825      -0.06034924
32
Lattice="6.17176593 0.0 0.0 0.0 8.01859859 0.0 0.0 0.0 13.03281824" Properties=species:S:1:pos:R:3:spacegroup_kinds:I:1:momenta:R:3:forces:R:3 spacegroup="P 1" unit_cell=conventional occupancy="_JSON {\"0\": {\"Li\": 1}, \"1\": {\"Li\": 1}, \"2\": {\"Li\": 1}, \"3\": {\"Li\": 1}, \"4\": {\"Li\": 1}, \"5\": {\"Li\": 1}, \"6\": {\"Li\": 1}, \"7\": {\"Li\": 1}, \"8\": {\"Li\": 1}, \"9\": {\"Li\": 1}, \"10\": {\"Li\": 1}, \"11\": {\"Li\": 1}, \"12\": {\"P\": 1}, \"13\": {\"P\": 1}, \"14\": {\"P\": 1}, \"15\": {\"P\": 1}, \"16\": {\"S\": 1}, \"17\": {\"S\": 1}, \"18\": {\"S\": 1}, \"19\": {\"S\": 1}, \"20\": {\"S\": 1}, \"21\": {\"S\": 1}, \"22\": {\"S\": 1}, \"23\": {\"S\": 1}, \"24\": {\"S\": 1}, \"25\": {\"S\": 1}, \"26\": {\"S\": 1}, \"27\": {\"S\": 1}, \"28\": {\"S\": 1}, \"29\": {\"S\": 1}, \"30\": {\"S\": 1}, \"31\": {\"S\": 1}}" energy=-140.31982421875 free_energy=-140.31982421875 stress="-0.006103914696723223 -3.1633077014703304e-05 8.450484165223315e-05 -3.1633077014703304e-05 -0.00793069414794445 -0.00040302396519109607 8.450484165223315e-05 -0.00040302396519109607 -0.005424801260232925" pbc="T T T"
Li       2.40487253       0.28718094       4.32683450        0       0.02688599       0.21459466      -0.08368707      -0.00387202      -0.04263526       0.00411220
Li       3.77572891       7.74924517       8.69488648        1       0.08189411       0.10033601      -0.15199105       0.00440907       0.00034337       0.01286371
Li       5.48638548       7.75532398       2.18455854        2      -0.00093153       0.03645492      -0.01228697      -0.02859155      -0.01778056       0.00349408
Li       0.69033083       0.28034263      10.83873728        3       0.17296981       0.12202355      -0.23144548      -0.00109090      -0.03149786       0.03305762
Li       3.77666486       4.27304840       8.69455562        4       0.10174388      -0.00790565      -0.05274701       0.00595889       0.02424672       0.01529134
Li       2.39765572       3.74408619       4.33424989        5       0.00593646       0.01663053       0.03487409      -0.02064080      -0.00549970      -0.00983060
Li       0.68424210       3.73607626      10.84604024        6       0.04496195      -0.16577766      -0.13399003       0.02820749       0.00636789       0.01457117
Li       5.48927844       4.27021867       2.19990717        7      -0.00089777      -0.16005147       0.31994889      -0.01957475       0.02558758      -0.03378144
Li       3.08880546      -0.00797355      -0.00528325        8       0.06228550      -0.05919955      -0.07149212      -0.03012699       0.00951919       0.02230390
Li      -0.00291865       0.01182825       6.52132143        9       0.05449261       0.16281899       0.17740100       0.00114989      -0.01785350       0.00154097
Li       3.09986245       4.01622811       0.00126477       10       0.24500504       0.04475941      -0.01054864      -0.03277912      -0.02315200       0.01719259
Li       0.01343280       4.00142087       6.52241443       11       0.15847683      -0.14457727       0.04376640      -0.03529666       0.03171916      -0.03709740
P        0.93930939       2.00652990       1.16809662       12       0.10119378       0.21318843      -0.06568003       0.03747696      -0.03606125      -0.01522627
P        5.22423753       6.01213109      11.86410596       13      -0.45731780       0.05470850      -0.32158496       0.18843080       0.11413009       0.00922366
P        4.02502538       6.01022040       5.34940191       14      -0.28588051      -0.09317405      -0.35382133      -0.09655514       0.01486523       0.00144863
P        2.14983064       2.00806554       7.67916281       15       0.18091959       0.08112723      -0.26756288      -0.07102059      -0.08623357       0.11285253
S        5.08850347       2.00676121       1.30436540       16      -0.15853264      -0.07198023       0.05132600      -0.25105926       0.00385528       0.01928286
S        1.08087864       6.01065750      11.72851902       17      -0.22318040      -0.10563330       0.11275292       0.16915616       0.02229038      -0.03736712
S        1.99462902       6.01277013       5.20266613       18      -0.60358667       0.17553188      -0.60696778      -0.10158356       0.02526196      -0.00438225
S        4.17059323       2.01196458       7.81954943       19       0.07250936       0.28385401      -0.14077077       0.26430231      -0.02959522       0.02018091
S        1.68562440       2.00285239      12.26066753       20       0.40434411      -0.28468927       0.24826472       0.09382141       0.01414622      -0.12882873
S        4.49294616       6.01153662       0.77183446       21       0.08563605      -0.31188350       0.02912901      -0.12183924       0.00508047       0.21413325
S        4.77040506       6.01287338       7.29059100       22       0.06203781       0.09720840      -0.00826268       0.07930535      -0.01794055       0.12707680
S        1.40760976       2.00246516       5.74273594       23       0.26823227      -0.14678360       0.06057033      -0.11357994       0.01314891      -0.18070035
S        1.66962817       0.29059798       2.00773668       24      -0.07346045      -0.06306635       0.27496752       0.12558770      -0.17471451       0.06132834
S        4.49304085       7.72845318      11.03005063       25      -0.41047794       0.37471690       0.23325202      -0.10242029       0.18981260      -0.10422800
S        4.76620114       7.72295749       4.51888514       26       0.62504091      -0.32151533       0.62772159       0.09654852       0.21173643      -0.10959211
S        1.40975289       0.29331210       8.52701636       27      -0.23891553      -0.08006736       0.26119685      -0.05111524      -0.11553032       0.00012733
S        4.49816878       4.30469508      11.03198980       28      -0.09888014       0.14370041       0.43768892      -0.18069041      -0.31177974      -0.17174199
S        1.67652270       3.71641943       2.00526308       29       0.18422887       0.09189595      -0.02319857       0.12303064       0.20755953       0.08797042
S        1.40810914       3.71681923       8.51912036       30      -0.29470443       0.17598279      -0.19756093      -0.08483566       0.19960847       0.08934377
S        4.75637983       4.29911270       4.50723563       31      -0.09202913      -0.37322797      -0.17926195       0.12928683      -0.20900539      -0.03461961
32
Lattice="6.17176593 0.0 0.0 0.0 8.01859859 0.0 0.0 0.0 13.03281824" Properties=species:S:1:pos:R:3:spacegroup_kinds:I:1:momenta:R:3:forces:R:3 spacegroup="P 1" unit_cell=conventional occupancy="_JSON {\"0\": {\"Li\": 1}, \"1\": {\"Li\": 1}, \"2\": {\"Li\": 1}, \"3\": {\"Li\": 1}, \"4\": {\"Li\": 1}, \"5\": {\"Li\": 1}, \"6\": {\"Li\": 1}, \"7\": {\"Li\": 1}, \"8\": {\"Li\": 1}, \"9\": {\"Li\": 1}, \"10\": {\"Li\": 1}, \"11\": {\"Li\": 1}, \"12\": {\"P\": 1}, \"13\": {\"P\": 1}, \"14\": {\"P\": 1}, \"15\": {\"P\": 1}, \"16\": {\"S\": 1}, \"17\": {\"S\": 1}, \"18\": {\"S\": 1}, \"19\": {\"S\": 1}, \"20\": {\"S\": 1}, \"21\": {\"S\": 1}, \"22\": {\"S\": 1}, \"23\": {\"S\": 1}, \"24\": {\"S\": 1}, \"25\": {\"S\": 1}, \"26\": {\"S\": 1}, \"27\": {\"S\": 1}, \"28\": {\"S\": 1}, \"29\": {\"S\": 1}, \"30\": {\"S\": 1}, \"31\": {\"S\": 1}}" energy=-140.31703186035156 free_energy=-140.31703186035156 stress="-0.0055791535414755344 -0.0001271579385502264 0.00010697742982301861 -0.0001271579385502264 -0.007664659526199102 -0.000513485458213836 0.00010697742982301861 -0.000513485458213836 -0.00540326489135623" pbc="T T T"
Li       2.40664677       0.29506615       4.32360092        0       0.08114507       0.18939811      -0.09302860       0.00646446      -0.06152151       0.00604168
Li       3.77656018       7.75569380       8.68836096        1      -0.02203198       0.19104533      -0.15738568       0.00419904      -0.01564531       0.02609874
Li       5.48604052       7.75686701       2.18422073        2      -0.05220465       0.03701827      -0.07927392      -0.02881630      -0.02255908       0.00394720
Li       0.69712558       0.28334822      10.82972975        3       0.19738835       0.02330738      -0.24277595      -0.01757778      -0.04447414       0.05819627
Li       3.78115228       4.27263153       8.69454126        4       0.14622702      -0.03433576       0.06226767      -0.00587635       0.03073289       0.01872896
Li       2.39634886       3.74409741       4.33644517        5      -0.02186113      -0.03088185       0.08381118      -0.01807810      -0.00398925      -0.01765527
Li       0.68534694       3.72996334      10.84108768        6       0.03076442      -0.19884834      -0.14349340       0.02656944       0.01999510       0.02815375
Li       5.48986348       4.26655087       2.20795869        7       0.02312119      -0.11986224       0.15527143      -0.01999725       0.03172198      -0.05331109
Li       3.09008050      -0.01074278      -0.00977323        8      -0.03534811      -0.11546667      -0.18658956      -0.04246932       0.00898947       0.04369453
Li      -0.00244530       0.02074145       6.52733611        9       0.02407060       0.23149619       0.19312063      -0.01253173      -0.03629633      -0.00992982
Li       3.10473112       4.01835367       0.00118036       10       0.04182161       0.10182405      -0.00281711      -0.04108889      -0.02858390       0.02793809
Li       0.01798521       3.99731332       6.52450662       11       0.14962749      -0.11113081       0.01799370      -0.05216825       0.04985891      -0.04924480
P        0.94038852       2.00875616       1.16740735       12       0.17833983       0.40100771      -0.07977824       0.01765077      -0.09887777       0.00671016
P        5.22158489       6.01277532      11.86100006       13      -0.15312224       0.10280740      -0.43295408       0.24689715       0.15674785       0.07509980
P        4.02175803       6.00883013       5.34725594       14      -0.65613198      -0.07553297      -0.28892498      -0.07904325       0.01177792       0.04922556
P        2.15208170       2.00861981       7.67673888       15       0.33603125       0.08267682      -0.24970748      -0.13189462      -0.07680460       0.17376864
S        5.08668424       2.00584974       1.30475665       16      -0.20262227      -0.14010255       0.00596432      -0.20160143       0.01401439       0.01209463
S        1.08051152       6.01050017      11.72972882       17      -0.04901313       0.01362984       0.16322056       0.13442162       0.02304040      -0.05333392
S        1.99016782       6.01173829       5.19880438       18      -0.56354867      -0.24251415      -0.43345526      -0.06240925       0.03720601      -0.00531897