32
Lattice="6.17176593 0.0 0.0 0.0 8.01859859 0.0 0.0 0.0 13.03281824" Properties=species:S:1:pos:R:3:spacegroup_kinds:I:1:forces:R:3 spacegroup="P 1" unit_cell=conventional occupancy="_JSON {\"0\": {\"Li\": 1}, \"1\": {\"Li\": 1}, \"2\": {\"Li\": 1}, \"3\": {\"Li\": 1}, \"4\": {\"Li\": 1}, \"5\": {\"Li\": 1}, \"6\": {\"Li\": 1}, \"7\": {\"Li\": 1}, \"8\": {\"Li\": 1}, \"9\": {\"Li\": 1}, \"10\": {\"Li\": 1}, \"11\": {\"Li\": 1}, \"12\": {\"P\": 1}, \"13\": {\"P\": 1}, \"14\": {\"P\": 1}, \"15\": {\"P\": 1}, \"16\": {\"S\": 1}, \"17\": {\"S\": 1}, \"18\": {\"S\": 1}, \"19\": {\"S\": 1}, \"20\": {\"S\": 1}, \"21\": {\"S\": 1}, \"22\": {\"S\": 1}, \"23\": {\"S\": 1}, \"24\": {\"S\": 1}, \"25\": {\"S\": 1}, \"26\": {\"S\": 1}, \"27\": {\"S\": 1}, \"28\": {\"S\": 1}, \"29\": {\"S\": 1}, \"30\": {\"S\": 1}, \"31\": {\"S\": 1}}" energy=-140.31869506835938 free_energy=-140.31869506835938 stress="-0.007170627824962139 1.4883122512188152e-09 1.392839710234739e-08 1.4883122512188152e-09 -0.008259405381977558 7.542489299794397e-09 1.392839710234739e-08 7.542489299794397e-09 -0.0052662985399365425" pbc="T T T"
Li       2.40329652       0.26860172       4.33400832        0      -0.02603559       0.00549105      -0.00432151
Li       3.76846941       7.74999687       8.69880992        1       0.02603678      -0.00549216       0.00432312
Li       5.48917948       7.74999687       2.18240080        2      -0.02603550      -0.00549067       0.00432214
Li       0.68258645       0.26860172      10.85041744        3       0.02603513       0.00549167      -0.00431937
Li       3.76846941       4.27790102       8.69880992        4       0.02603647       0.00549217       0.00432238
Li       2.40329652       3.74069757       4.33400832        5      -0.02603559      -0.00549073      -0.00432133
Li       0.68258645       3.74069757      10.85041744        6       0.02603596      -0.00549237      -0.00431965
Li       5.48917948       4.27790102       2.18240080        7      -0.02603593       0.00549081       0.00432245
Li       3.08588297       0.00000000       0.00000000        8      -0.00000052      -0.00000086      -0.00000082
Li       0.00000000       0.00000000       6.51640912        9      -0.00000023       0.00000063      -0.00000029
Li       3.08588297       4.00929929       0.00000000       10      -0.00000011       0.00000159      -0.00000054
Li       0.00000000       4.00929929       6.51640912       11       0.00000030       0.00000020      -0.00000056
P        0.94051010       2.00464965       1.16601784       12      -0.02067213      -0.00000176       0.02376037
P        5.23125583       6.01394894      11.86680040       13       0.02066660       0.00000046      -0.02376049
P        4.02639307       6.01394894       5.35039128       14      -0.02066780       0.00000089      -0.02375586
P        2.14537286       2.00464965       7.68242696       15       0.02066837      -0.00000080       0.02375847
S        5.08970823       2.00464965       1.30575389       16      -0.25450617       0.00000049       0.01679090
S        1.08205770       6.01394894      11.72706435       17       0.25450680       0.00000029      -0.01679209
S        2.00382526       6.01394894       5.21065523       18      -0.25450602       0.00000014      -0.01679153
S        4.16794067       2.00464965       7.82216301       19       0.25450104      -0.00000018       0.01678923
S        1.68132889       2.00464965      12.25955363       20       0.10912203      -0.00000010      -0.16719607
S        4.49043704       6.01394894       0.77326461       21      -0.10912056       0.00000022       0.16718167
S        4.76721186       6.01394894       7.28967373       22       0.10912039       0.00000038       0.16717920
S        1.40455407       2.00464965       5.74314451       23      -0.10911943       0.00000038      -0.16718182
S        1.67233151       0.29287049       2.00524453       24       0.13957848      -0.21272576       0.08710012
S        4.49943442       7.72572810      11.02757371       25      -0.13957541       0.21272510      -0.08709328
S        4.75821447       7.72572810       4.51116459       26       0.13957550       0.21272449      -0.08709174
S        1.41355146       0.29287049       8.52165365       27      -0.13957584      -0.21272177       0.08709131
S        4.49943442       4.30216979      11.02757371       28      -0.13957748      -0.21272562      -0.08709393
S        1.67233151       3.71642880       2.00524453       29       0.13957851       0.21272644       0.08710028
S        1.41355146       3.71642880       8.52165365       30      -0.13957499       0.21272071       0.08709165
S        4.75821447       4.30216979       4.51116459       31       0.13957703      -0.21272537      -0.08709261
