13
Lattice="7.26870274 0.0 0.0 3.634351370000001 6.294881225397555 0.0 3.634351370000001 2.0982937417991856 5.934870934989993" Properties=species:S:1:pos:R:3:spacegroup_kinds:I:1:forces:R:3 spacegroup="P 1" unit_cell=conventional occupancy="_JSON {\"0\": {\"Li\": 1}, \"1\": {\"Li\": 1}, \"2\": {\"Li\": 1}, \"3\": {\"Li\": 1}, \"4\": {\"Li\": 1}, \"5\": {\"Li\": 1}, \"6\": {\"P\": 1}, \"7\": {\"S\": 1}, \"8\": {\"S\": 1}, \"9\": {\"S\": 1}, \"10\": {\"S\": 1}, \"11\": {\"S\": 1}, \"12\": {\"Cl\": 1}}" energy=-53.3634147644043 free_energy=-53.3634147644043 stress="-0.0007942052325233817 -2.4231647444139526e-07 -1.5057705127219378e-07 -2.4231647444139526e-07 -0.0007939321221783757 -1.018841970790163e-07 -1.5057705127219378e-07 -1.018841970790163e-07 -0.0007938995258882642" pbc="T T T"
Li       9.25387995       7.24703237       3.10460814        0       0.00422531      -0.00243429       0.00344768
Li      12.55222827       5.34273008       5.79769826        1      -0.00421152       0.00243319      -0.00344155
Li       9.25387995       5.34273008       5.79769826        2       0.00422533       0.00243868      -0.00344711
Li      12.55222827       7.24703237       3.10460814        3      -0.00421152      -0.00243084       0.00344055
Li      10.90305411       4.39057894       3.10460814        4       0.00000259       0.00487646       0.00344778
Li      10.90305411       8.19918351       5.79769826        5       0.00000185      -0.00486355      -0.00344132
P        7.26870274       4.19658748       2.96743547        6       0.00008536       0.00004664       0.00003630
S        7.26870637       6.13578650       2.28182731        7      -0.00001810      -0.01091059       0.00384742
S        8.94810016       3.22699113       2.28182731        8      -0.00945833       0.00544029       0.00384771
S        5.58931258       3.22699113       2.28182731        9       0.00937790       0.00541269       0.00383007
S        7.26870637       4.19658958       5.02426588       10      -0.00001850      -0.00000970      -0.01156838
S       10.90305411       6.29488123       4.45115320       11      -0.00000220      -0.00000039       0.00000005
Cl       0.00000000       0.00000000       0.00000000       12       0.00000181       0.00000138       0.00000075
