32
Lattice="6.17176593 0.0 0.0 0.0 8.01859859 0.0 0.0 0.0 13.03281824" Properties=species:S:1:pos:R:3:spacegroup_kinds:I:1:momenta:R:3:forces:R:3 spacegroup="P 1" unit_cell=conventional occupancy="_JSON {\"0\": {\"Li\": 1}, \"1\": {\"Li\": 1}, \"2\": {\"Li\": 1}, \"3\": {\"Li\": 1}, \"4\": {\"Li\": 1}, \"5\": {\"Li\": 1}, \"6\": {\"Li\": 1}, \"7\": {\"Li\": 1}, \"8\": {\"Li\": 1}, \"9\": {\"Li\": 1}, \"10\": {\"Li\": 1}, \"11\": {\"Li\": 1}, \"12\": {\"P\": 1}, \"13\": {\"P\": 1}, \"14\": {\"P\": 1}, \"15\": {\"P\": 1}, \"16\": {\"S\": 1}, \"17\": {\"S\": 1}, \"18\": {\"S\": 1}, \"19\": {\"S\": 1}, \"20\": {\"S\": 1}, \"21\": {\"S\": 1}, \"22\": {\"S\": 1}, \"23\": {\"S\": 1}, \"24\": {\"S\": 1}, \"25\": {\"S\": 1}, \"26\": {\"S\": 1}, \"27\": {\"S\": 1}, \"28\": {\"S\": 1}, \"29\": {\"S\": 1}, \"30\": {\"S\": 1}, \"31\": {\"S\": 1}}" energy=-139.21224975585938 free_energy=-139.21224975585938 stress="-0.005714830011129379 -0.0003501760365907103 9.35935604502447e-05 -0.0003501760365907103 -0.007003775332123041 0.0018641019705682993 9.35935604502447e-05 0.0018641019705682993 -0.006534678861498833" pbc="T T T"
Li       2.78096969       0.04533802       4.75315852        0       0.73884451       0.17358955       0.03383124      -0.36633956       0.45009255      -0.31119004
Li       4.07134363       7.87101715       8.56325567        1       0.05789436       0.23481603      -0.34423634       0.05236375      -0.22716819       0.21850762
Li       5.80415955       7.86198985       2.15804124        2       0.80093525      -0.44789129      -0.52493729       0.02755523       0.18741883       0.26490399
Li       0.90241485       0.29012471      10.84982959        3       0.05970496       0.16602501      -0.09600080      -0.22752869      -0.16016021       0.17861010
Li       3.47705590       4.38838785       8.98009413        4      -0.57401486      -0.12951892       0.73373239      -0.23323701       0.04894800      -0.23320478
Li       2.25973781       3.54918950       4.22556207        5       0.74989334      -0.31300864       0.11982654       0.08059560       0.11983903       0.03274529
Li       0.55488793       3.49823352      10.71476419        6       0.39672548      -0.41908065       0.14411246      -0.51969337       0.71867341       0.07780547
Li       5.50175611       4.55127073       1.96970767        7       0.17046480      -0.17700830       0.21405422      -0.12000394      -0.07974999       0.23997791
Li       3.54297720       0.94937902       0.12959780        8      -0.15723054      -0.58359798       0.19370463       0.15721473      -0.17302722      -0.15063310
Li       0.41164540      -0.83919755       6.45936056        9      -0.23200084       0.98069081      -0.58056011       0.44979215       0.29163963      -0.11956714
Li       2.70272308       4.68095855      -0.00927597       10      -0.41635977       0.04694073      -0.28452891       0.07579412       0.20701453      -0.27882367
Li      -0.62891837       3.53012556       6.82779335       11       0.82307633      -0.01157806       0.13774932      -0.31349379      -0.09934726      -0.58844936
P        0.91440134       2.14444948       1.09116735       12       1.36480301      -0.94910722       0.08025095       0.67885005       0.22511889       0.53867173
P        5.23707908       6.13354878      11.86399459       13      -0.97151594       1.33419786      -0.47183919       0.11226632       0.02664071      -0.25797701
P        4.17860488       5.87849140       5.30632504       14      -0.89183608       0.24304495      -0.65890685      -0.69130158       0.56268740      -0.16430253
P        1.95812095       1.75557369       7.74200838       15       0.91640369       1.50718795      -0.07695112      -0.06858781       0.77197248       0.81134492
S        5.12343564       2.21146342       1.62964548       16       0.27038020       1.34547279       0.85279656      -0.20885074      -0.54568219      -0.37059933
S        1.05139579       5.94105698      11.37716450       17      -1.34898707      -1.45149809       0.29324169      -0.03833929      -0.08440571       0.34864411
S        2.10126804       5.89322909       5.01470372       18       1.50185230       0.96020092      -0.27514518       0.31895506      -0.10911165       0.46926773
S        3.93149249       2.16880623       8.19502893       19       0.59376601      -0.48291536      -1.54745003       0.01905870      -0.06972913      -0.40142384
S        1.52129927       2.14471387      12.14741813       20      -1.91645546      -0.56222585      -0.02705329       0.31272918      -0.17673236       0.43856522
S        4.69673341       6.39385194       0.81636895       21       0.75215051       0.30436080      -0.76700038      -0.37459922      -0.43352383      -0.33160058
S        4.85869788       5.85632676       7.28700812       22       0.37543366      -0.28847862       0.77190020      -0.56011999      -0.08802252       0.14132650
S        1.39264203       1.64893678       5.79543706       23      -2.49930737      -0.50612271       0.00231969      -0.05112107       0.03850318      -0.33858228
S        1.89490061       0.47473862       1.83791456       24      -0.60768449      -0.55397238       0.31528389      -0.33638093       0.47850043       0.16619295
S        4.55534273       7.89694873      11.05268507       25      -1.30030268      -0.91815859       0.20597365       0.01730498      -0.07163679      -0.22115342
S        4.97259770       7.58961281       4.46943676       26       1.89054926       1.08224692      -0.23450553       0.29479703      -0.03074984       0.29938018
S        1.57681611      -0.03453525       8.67854489       27      -0.24542519      -0.63552475       0.45354742      -0.11001887       0.07451613      -0.68314201
S        4.35100394       4.37946016      11.18436179       28      -0.47373020      -0.37458005       2.01591121       0.06107599       0.25677633       0.28026494
S        1.58888591       3.97647168       1.89044843       29      -0.79217352       0.46904870       0.36496995       0.27186024      -0.61660254       0.07681347
S        0.89483053       3.42002032       8.47758091       30      -0.03787213       0.67010843      -0.00152798       0.99264282      -0.47529888      -0.09772637
S        4.80500264       4.24809201       4.36413001       31       1.00201851      -0.71366401      -1.04256297       0.29675972      -1.01739323      -0.03464665
