32
Lattice="6.17176593 0.0 0.0 0.0 8.01859859 0.0 0.0 0.0 13.03281824" Properties=species:S:1:pos:R:3:spacegroup_kinds:I:1:momenta:R:3:forces:R:3 spacegroup="P 1" unit_cell=conventional occupancy="_JSON {\"0\": {\"Li\": 1}, \"1\": {\"Li\": 1}, \"2\": {\"Li\": 1}, \"3\": {\"Li\": 1}, \"4\": {\"Li\": 1}, \"5\": {\"Li\": 1}, \"6\": {\"Li\": 1}, \"7\": {\"Li\": 1}, \"8\": {\"Li\": 1}, \"9\": {\"Li\": 1}, \"10\": {\"Li\": 1}, \"11\": {\"Li\": 1}, \"12\": {\"P\": 1}, \"13\": {\"P\": 1}, \"14\": {\"P\": 1}, \"15\": {\"P\": 1}, \"16\": {\"S\": 1}, \"17\": {\"S\": 1}, \"18\": {\"S\": 1}, \"19\": {\"S\": 1}, \"20\": {\"S\": 1}, \"21\": {\"S\": 1}, \"22\": {\"S\": 1}, \"23\": {\"S\": 1}, \"24\": {\"S\": 1}, \"25\": {\"S\": 1}, \"26\": {\"S\": 1}, \"27\": {\"S\": 1}, \"28\": {\"S\": 1}, \"29\": {\"S\": 1}, \"30\": {\"S\": 1}, \"31\": {\"S\": 1}}" energy=-140.31869506835938 free_energy=-140.31869506835938 stress="-0.00717061897739768 8.569077003528491e-09 8.83700934650733e-09 8.569077003528491e-09 -0.00825938768684864 -1.320365039525484e-09 8.83700934650733e-09 -1.320365039525484e-09 -0.005266285035759211" pbc="T T T"
Li       2.40329652       0.26860172       4.33400832        0       0.00000000       0.00000000       0.00000000      -0.02603533       0.00549087      -0.00432144
Li       3.76846941       7.74999687       8.69880992        1       0.00000000       0.00000000       0.00000000       0.02603655      -0.00549216       0.00432333
Li       5.48917948       7.74999687       2.18240080        2       0.00000000       0.00000000       0.00000000      -0.02603558      -0.00549057       0.00432293
Li       0.68258645       0.26860172      10.85041744        3       0.00000000       0.00000000       0.00000000       0.02603556       0.00549185      -0.00431983
Li       3.76846941       4.27790102       8.69880992        4       0.00000000       0.00000000       0.00000000       0.02603608       0.00549201       0.00432222
Li       2.40329652       3.74069757       4.33400832        5       0.00000000       0.00000000       0.00000000      -0.02603666      -0.00549142      -0.00432197
Li       0.68258645       3.74069757      10.85041744        6       0.00000000       0.00000000       0.00000000       0.02603585      -0.00549198      -0.00431967
Li       5.48917948       4.27790102       2.18240080        7       0.00000000       0.00000000       0.00000000      -0.02603586       0.00549081       0.00432259
Li       3.08588297       0.00000000       0.00000000        8       0.00000000       0.00000000       0.00000000      -0.00000071      -0.00000120      -0.00000054
Li       0.00000000       0.00000000       6.51640912        9       0.00000000       0.00000000       0.00000000       0.00000027      -0.00000055      -0.00000046
Li       3.08588297       4.00929929       0.00000000       10       0.00000000       0.00000000       0.00000000       0.00000015       0.00000145       0.00000036
Li       0.00000000       4.00929929       6.51640912       11       0.00000000       0.00000000       0.00000000       0.00000076       0.00000139      -0.00000107
P        0.94051010       2.00464965       1.16601784       12       0.00000000       0.00000000       0.00000000      -0.02067216       0.00000086       0.02376101
P        5.23125583       6.01394894      11.86680040       13       0.00000000       0.00000000       0.00000000       0.02066635      -0.00000152      -0.02375992
P        4.02639307       6.01394894       5.35039128       14       0.00000000       0.00000000       0.00000000      -0.02066752       0.00000109      -0.02375580
P        2.14537286       2.00464965       7.68242696       15       0.00000000       0.00000000       0.00000000       0.02066853      -0.00000173       0.02375688
S        5.08970823       2.00464965       1.30575389       16       0.00000000       0.00000000       0.00000000      -0.25450549       0.00000212       0.01679087
S        1.08205770       6.01394894      11.72706435       17       0.00000000       0.00000000       0.00000000       0.25450718      -0.00000071      -0.01679199
S        2.00382526       6.01394894       5.21065523       18       0.00000000       0.00000000       0.00000000      -0.25450596       0.00000074      -0.01679083
S        4.16794067       2.00464965       7.82216301       19       0.00000000       0.00000000       0.00000000       0.25450030      -0.00000034       0.01678992
S        1.68132889       2.00464965      12.25955363       20       0.00000000       0.00000000       0.00000000       0.10912287      -0.00000001      -0.16719744
S        4.49043704       6.01394894       0.77326461       21       0.00000000       0.00000000       0.00000000      -0.10912082      -0.00000005       0.16718169
S        4.76721186       6.01394894       7.28967373       22       0.00000000       0.00000000       0.00000000       0.10912116       0.00000002       0.16718009
S        1.40455407       2.00464965       5.74314451       23       0.00000000       0.00000000       0.00000000      -0.10911970      -0.00000002      -0.16718099
S        1.67233151       0.29287049       2.00524453       24       0.00000000       0.00000000       0.00000000       0.13957821      -0.21272618       0.08709955
S        4.49943442       7.72572810      11.02757371       25       0.00000000       0.00000000       0.00000000      -0.13957503       0.21272467      -0.08709283
S        4.75821447       7.72572810       4.51116459       26       0.00000000       0.00000000       0.00000000       0.13957551       0.21272521      -0.08709169
S        1.41355146       0.29287049       8.52165365       27       0.00000000       0.00000000       0.00000000      -0.13957593      -0.21272202       0.08709040
S        4.49943442       4.30216979      11.02757371       28       0.00000000       0.00000000       0.00000000      -0.13957758      -0.21272510      -0.08709257
S        1.67233151       3.71642880       2.00524453       29       0.00000000       0.00000000       0.00000000       0.13957766       0.21272641       0.08709955
S        1.41355146       3.71642880       8.52165365       30       0.00000000       0.00000000       0.00000000      -0.13957503       0.21272098       0.08709180
S        4.75821447       4.30216979       4.51116459       31       0.00000000       0.00000000       0.00000000       0.13957644      -0.21272494      -0.08709416
32
Lattice="6.17176593 0.0 0.0 0.0 8.01859859 0.0 0.0 0.0 13.03281824" Properties=species:S:1:pos:R:3:spacegroup_kinds:I:1:momenta:R:3:forces:R:3 spacegroup="P 1" unit_cell=conventional occupancy="_JSON {\"0\": {\"Li\": 1}, \"1\": {\"Li\": 1}, \"2\": {\"Li\": 1}, \"3\": {\"Li\": 1}, \"4\": {\"Li\": 1}, \"5\": {\"Li\": 1}, \"6\": {\"Li\": 1}, \"7\": {\"Li\": 1}, \"8\": {\"Li\": 1}, \"9\": {\"Li\": 1}, \"10\": {\"Li\": 1}, \"11\": {\"Li\": 1}, \"12\": {\"P\": 1}, \"13\": {\"P\": 1}, \"14\": {\"P\": 1}, \"15\": {\"P\": 1}, \"16\": {\"S\": 1}, \"17\": {\"S\": 1}, \"18\": {\"S\": 1}, \"19\": {\"S\": 1}, \"20\": {\"S\": 1}, \"21\": {\"S\": 1}, \"22\": {\"S\": 1}, \"23\": {\"S\": 1}, \"24\": {\"S\": 1}, \"25\": {\"S\": 1}, \"26\": {\"S\": 1}, \"27\": {\"S\": 1}, \"28\": {\"S\": 1}, \"29\": {\"S\": 1}, \"30\": {\"S\": 1}, \"31\": {\"S\": 1}}" energy=-140.0341339111328 free_energy=-140.0341339111328 stress="0.00017822915106080472 0.00015255884500220418 -0.0004989071167074144 0.00015255884500220418 -0.0033244898077100515 0.0021503244061022997 -0.0004989071167074144 0.0021503244061022997 -0.002206134609878063" pbc="T T T"
Li       2.43213278       0.18045342       4.39880337        0       0.02960254      -0.14097092      -0.00750951      -0.15396652       0.32914445      -0.18887749
Li       3.72809706       7.81378259       8.75219916        1      -0.01969752       0.19458943       0.17757304       0.14942491      -0.18210836      -0.10734390
Li       5.51998058       7.76124220       2.19764406        2       0.06842089       0.16530540      -0.00846938       0.04535827      -0.00106947      -0.09668770
Li       0.67775047       0.32827491      10.83573619        3      -0.43751882       0.36881384      -0.32255614      -0.01515515      -0.10694327       0.05452017
Li       3.81064683       4.38920993       8.73890100        4       0.15744724       0.15194302       0.25646853      -0.18357939      -0.28329057      -0.00261846
Li       2.42852884       3.75921134       4.36419152        5       0.02125158      -0.06217525       0.04178649      -0.09668881      -0.07810718      -0.04785048
Li       0.75140391       3.81357404      10.84016701        6       0.20379929       0.43239838      -0.06031360       0.00004101      -0.06606854       0.00468761
Li       5.44274992       4.30319870       2.28261330        7      -0.45284449       0.11563877       0.15176719       0.02325387      -0.07385389      -0.16362119
Li       3.19021931       0.03088975      -0.05162123        8       0.42229649      -0.22716748       0.10365688      -0.19362319       0.12865886       0.12879431
Li       0.02691568      -0.18526814       6.45474060        9       0.20501327      -0.96391683       0.07798193       0.14756486       0.11697490       0.13750651
Li       3.16796408       3.92139545       0.01927213       10       0.25897452       0.08094045      -0.18185767      -0.05453325      -0.03228766       0.06181606
Li       0.15067934       3.95095510       6.51973890       11       0.39635678      -0.00133991      -0.32715627      -0.37927294       0.28174835      -0.15362051
P        0.93664065       2.03483552       1.21889150       12      -0.60364699       0.90441753       0.17447093      -0.20518625      -0.01397324      -0.85370386
P        5.21558785       5.99843006      11.89753796       13      -0.44804117      -1.07869986       0.75970701       0.67022598      -0.24429436      -0.05590470
P        4.02757223       6.00336684       5.29398668       14      -0.16810131      -0.36838845      -1.12828382       0.02048264      -0.05572004       0.53537601
P        2.15774917       1.98779880       7.67833522       15       0.75963745      -0.21502405       0.41443863      -0.18716867       0.69083971       0.06561609
S        5.04194544       1.96830527       1.29858097       16      -0.89576717      -0.04579981      -0.23877163       0.37866700       0.26160866       0.15286183
S        1.09611080       6.04257162      11.71669221       17      -0.02387675       0.02120138       0.00203140      -0.22931543      -0.01242762       0.08101951
S        1.95474810       6.01897598       5.19713331       18      -0.32348937       0.02306624      -0.49818200       0.43676549      -0.04460973      -0.07446215
S        4.18103639       1.98800940       7.83738515       19       0.42653957      -0.25613065       0.10334693      -0.02513388       0.12158505       0.02626527
S        1.66185297       2.01615255      12.23546068       20      -1.49527196       0.17601993       0.12804719      -0.00079255       0.21704361       0.50177312
S        4.50319892       6.05911767       0.81679092       21       0.57009418       1.30731584      -0.41488368      -0.10433789      -0.21498558      -0.01394821
S        4.75922096       5.97835920       7.28177321       22      -0.60177666      -0.82606104       0.16912481      -0.02937093       0.30725712      -0.47928813
S        1.39471713       2.08066908       5.73368784       23      -0.35491332       0.75714914      -0.23211122       0.14223376      -0.55712277      -0.12401649
S        1.70652567       0.29824660       1.93137995       24       0.51584717       0.50788636      -0.68017200       0.13269727      -0.18665120       0.45655304
S        4.50477926       7.68137182      11.02314002       25       0.59070163       0.02411999      -0.18328539      -0.23854277       0.43566692      -0.23302823
S        4.78902844       7.76440662       4.46584390       26       1.08947240       0.58351183      -1.29598847      -0.20889235      -0.53696406       0.22445370
S        1.40136571       0.29057976       8.51396375       27      -0.48422898      -0.32119289       1.03512354      -0.18963596      -0.21336441      -0.01612937
S        4.50947087       4.26096333      11.05657626       28       0.50749759      -0.44715792       0.71643262      -0.01680379       0.02492746       0.05527914
S        1.66812734       3.76011204       2.05551949       29      -0.12256339       0.51836496       1.02246235      -0.09691447      -0.09914519      -0.10359416
S        1.35837482       3.74284974       8.49067439       30      -0.54028751       0.05572099      -0.45318388       0.46203467      -0.30006450       0.20256314
S        4.74799996       4.21609956       4.54513245       31       0.74907282      -1.43437842       0.69830522       0.00016453       0.38759652       0.02560947
32
Lattice="6.17176593 0.0 0.0 0.0 8.01859859 0.0 0.0 0.0 13.03281824" Properties=species:S:1:pos:R:3:spacegroup_kinds:I:1:momenta:R:3:forces:R:3 spacegroup="P 1" unit_cell=conventional occupancy="_JSON {\"0\": {\"Li\": 1}, \"1\": {\"Li\": 1}, \"2\": {\"Li\": 1}, \"3\": {\"Li\": 1}, \"4\": {\"Li\": 1}, \"5\": {\"Li\": 1}, \"6\": {\"Li\": 1}, \"7\": {\"Li\": 1}, \"8\": {\"Li\": 1}, \"9\": {\"Li\": 1}, \"10\": {\"Li\": 1}, \"11\": {\"Li\": 1}, \"12\": {\"P\": 1}, \"13\": {\"P\": 1}, \"14\": {\"P\": 1}, \"15\": {\"P\": 1}, \"16\": {\"S\": 1}, \"17\": {\"S\": 1}, \"18\": {\"S\": 1}, \"19\": {\"S\": 1}, \"20\": {\"S\": 1}, \"21\": {\"S\": 1}, \"22\": {\"S\": 1}, \"23\": {\"S\": 1}, \"24\": {\"S\": 1}, \"25\": {\"S\": 1}, \"26\": {\"S\": 1}, \"27\": {\"S\": 1}, \"28\": {\"S\": 1}, \"29\": {\"S\": 1}, \"30\": {\"S\": 1}, \"31\": {\"S\": 1}}" energy=-139.5735626220703 free_energy=-139.5735626220703 stress="-0.00016412726836279035 -0.0011342073557898402 0.0012484191684052348 -0.0011342073557898402 -0.00060677231522277 -0.0011171891819685698 0.0012484191684052348 -0.0011171891819685698 -0.004222454037517309" pbc="T T T"
Li       2.42074094       0.21336654       4.44862827        0       0.04325555       0.47752401       0.39468017      -0.09134004       0.29892069      -0.28737211
Li       3.85772316       7.80951199       8.81733595        1       0.28647017       0.28451621       0.11866354      -0.14143990      -0.16350606      -0.41402233
Li       5.57463341       7.80673314       2.16619884        2       0.21319289       0.42673592      -0.11862756       0.14517726      -0.06306376      -0.07114935
Li       0.52527378       0.34239449      10.80697193        3      -0.39625492      -0.21512679       0.15608790       0.32177058       0.02978622       0.09705139
Li       3.77277846       4.18764942       8.75315960        4      -0.24350204      -0.64467359      -0.15270300      -0.00067397       0.13926478      -0.00396451
Li       2.43000180       3.77050665       4.36628434        5      -0.02309021      -0.28881858      -0.18216233      -0.00725978      -0.14511904       0.13862905
Li       0.68509095       3.97071972      10.94305352        6      -0.74997294       0.30087749       0.38222613       0.29013938      -0.74596608      -0.35430589
Li       5.29235013       4.26944551       2.30820389        7      -0.35133893      -0.02157134       0.05068924       0.17273071      -0.00228188      -0.02671355
Li       3.18159047       0.11168346       0.03794672        8      -0.17348233       0.74566756       0.15234814       0.02393159       0.02477998      -0.24676126
Li       0.23052090      -0.34532161       6.53362294        9       0.92873877      -0.32612044       0.17116903      -0.04598984       0.01246589      -0.15354826
Li       3.22336894       3.86899730       0.06744375       10      -0.14355333       0.01398217       0.22514346      -0.09310103      -0.03884096       0.08245179
Li       0.11593672       3.99994805       6.41567746       11      -0.63590594       0.06643045      -0.06898742      -0.09668269       0.14397605       0.14887416
P        0.90027677       2.09528152       1.20543456       12      -0.43462595       1.17923283      -0.73009914       0.63626713      -0.62160212      -0.03499214
P        5.23935137       5.95212868      11.92244049       13       0.90053368      -0.15887901      -0.37074166      -0.07139840       0.34513813      -0.64613134
P        4.02542744       6.04277471       5.27574000       14       0.19924038       0.84179618      -0.55385852      -0.33992425      -0.77665663       0.81189656
P        2.17664118       2.01380235       7.70430623       15      -0.36155647      -0.00463879      -0.87739761      -0.78302872       0.01896387      -0.75545800
S        5.03037497       1.97522322       1.27368296       16       0.16383671      -0.29562838       0.21132702       0.02479859       0.33042559       0.28480735
S        1.06060015       6.04413088      11.67753879       17      -0.41522112      -0.72194322      -0.50395818       0.67391849       0.44535467       0.25425890
S        1.89861005       6.02126071       5.15454753       18      -0.50344055       0.33971910      -0.82848527       0.96101344       0.08985459      -0.11499816
S        4.20966276       1.98576348       7.82294369       19      -0.09881161       0.80301290       0.02148482      -0.33044732       0.00040723       0.03498002
S        1.58750862       2.05804265      12.27378563       20      -0.27731561       1.01203362       0.69017079       0.17356743       0.29911301      -0.14541639
S        4.55975485       6.13254187       0.80236440       21       0.35108198       0.61233374       0.71592002      -0.32610184      -0.46128964       0.44948068
S        4.68921004       5.93800299       7.27767357       22      -1.11401645      -0.70453538       0.10864744       0.00174940       0.46978444      -0.30215687
S        1.34581693       2.07432849       5.69249516       23      -0.19523802      -0.79525945      -0.77434358       0.56259364      -0.63516891       0.63585764
S        1.76754944       0.31650894       1.91121817       24       0.72969770      -0.03166653       0.16395103      -0.46240097       0.43420216       0.44015050
S        4.50822684       7.64670123      10.99713749       25       0.19181206      -0.59065919       0.82685201      -0.48672751       0.03795313       0.36452693
S        4.83699105       7.70918299       4.42027954       26      -0.64142499      -2.07493325      -0.48395928      -0.25859258      -0.16114925       0.31707484
S        1.39033607       0.25564646       8.53880027       27       0.43583060      -0.54411057      -0.21782075       0.41978872       0.56411189      -0.10410804
S        4.55722857       4.18501570      11.10973874       28       0.21481492      -1.04142455       0.94879828      -0.35656741       0.12140948       0.04371477
S        1.68702848       3.76699685       2.13293069       29      -0.11540864       0.21895271       1.21447099      -0.48132879      -0.15772809      -0.50920033
S        1.36336382       3.79565663       8.38639695       30       1.38623317       0.50001581      -1.85586241       0.40887550      -0.39079523       0.63074738
S        4.78632853       4.19770058       4.64263210       31       0.82942146       0.63715840       1.16637670      -0.44331700       0.55725598      -0.56420392
32
Lattice="6.17176593 0.0 0.0 0.0 8.01859859 0.0 0.0 0.0 13.03281824" Properties=species:S:1:pos:R:3:spacegroup_kinds:I:1:momenta:R:3:forces:R:3 spacegroup="P 1" unit_cell=conventional occupancy="_JSON {\"0\": {\"Li\": 1}, \"1\": {\"Li\": 1}, \"2\": {\"Li\": 1}, \"3\": {\"Li\": 1}, \"4\": {\"Li\": 1}, \"5\": {\"Li\": 1}, \"6\": {\"Li\": 1}, \"7\": {\"Li\": 1}, \"8\": {\"Li\": 1}, \"9\": {\"Li\": 1}, \"10\": {\"Li\": 1}, \"11\": {\"Li\": 1}, \"12\": {\"P\": 1}, \"13\": {\"P\": 1}, \"14\": {\"P\": 1}, \"15\": {\"P\": 1}, \"16\": {\"S\": 1}, \"17\": {\"S\": 1}, \"18\": {\"S\": 1}, \"19\": {\"S\": 1}, \"20\": {\"S\": 1}, \"21\": {\"S\": 1}, \"22\": {\"S\": 1}, \"23\": {\"S\": 1}, \"24\": {\"S\": 1}, \"25\": {\"S\": 1}, \"26\": {\"S\": 1}, \"27\": {\"S\": 1}, \"28\": {\"S\": 1}, \"29\": {\"S\": 1}, \"30\": {\"S\": 1}, \"31\": {\"S\": 1}}" energy=-139.4144744873047 free_energy=-139.4144744873047 stress="-0.0032464307732880116 0.0018353310879319906 -0.0002457822556607425 0.0018353310879319906 -0.00932405423372984 0.002475630957633257 -0.0002457822556607425 0.002475630957633257 -0.009788518771529198" pbc="T T T"
Li       2.44569226       0.36510299       4.47468318        0       0.00832264      -0.23382359      -0.57213269       0.17396805      -0.22987840      -0.44607848
Li       3.85960072       7.93141958       8.84384822        1      -0.16971329       0.27841915       0.15433933      -0.02183426      -0.38461217      -0.23514062
Li       5.64740757       7.96316430       2.09638145        2       0.47045040       0.12349314      -0.07977029      -0.09088796      -0.78354633       0.20512685
Li       0.56690524       0.37173392      10.77662819        3       0.15143794      -0.07603604      -0.09392274       0.12811957      -0.08257255       0.09076499
Li       3.71687336       4.16725821       8.69335375        4      -0.13902846       0.50705965      -0.34744444       0.18642944       0.17726722       0.18103740
Li       2.36312130       3.64702466       4.33318016        5       0.04541076      -0.39740296       0.27251949       0.25107509       0.10259332       0.23094849
Li       0.70871397       3.91522808      10.90458948        6       0.91740558      -0.41989194      -0.15676896       0.09421268      -0.28203282      -0.32396269
Li       5.16602582       4.32783705       2.28228296        7       0.20346280       0.06371691       0.13067382       0.26675904      -0.10727723       0.03794450
Li       3.07820691       0.31786032      -0.07234626        8      -0.46385638       0.32164319      -0.03046169       0.24755934      -0.23248897       0.01426640
Li       0.35869895      -0.47059955       6.48036547        9       0.08140708      -0.62411725      -0.40617696      -0.20543246      -0.03539555      -0.10325114
Li       2.98327644       3.91636276       0.14953903       10      -1.00325905       0.59396609       0.02219829       0.29173014       0.30645972      -0.21612182
Li       0.06316568       4.03629714       6.44696888       11       0.32313565       0.12660695       0.41239804      -0.05624364      -0.01280512       0.25367421
P        0.91430119       2.09190094       1.16970993       12       0.84894893      -1.32609756       0.22624538      -0.21526788       0.12994835       0.73918951
P        5.25845314       5.93542234      11.92472085       13       0.48375336      -1.03019123       1.01680946       0.05366881      -0.35923201       0.42500994
P        3.97396548       6.01699234       5.27880699       14      -0.58790253      -0.90290966       0.24625197       0.73727357      -0.50509751       0.42709482
P        2.13748252       2.01616683       7.60934484       15      -0.19497112      -0.41200836      -1.98318308       0.74705553      -0.32163566       0.49849111
S        5.03499484       1.95857682       1.35360029       16      -0.31076748       0.20791485       2.10714030       0.04794100       0.81340265      -0.15710962
S        1.13870353       6.03259325      11.69667747       17       1.11777390       0.94022821       0.56217189      -0.30749235       0.22389564       0.11662015
S        1.98535921       6.03415650       5.08384408       18       1.76499259       0.19344434      -1.75300092      -0.95648313      -0.08267446      -0.23835528
S        4.21838133       2.00836829       7.87579107       19      -0.32033428       0.16935412       0.92522530      -0.65167379       0.05719027      -0.37760934
S        1.57696144       2.15439373      12.26521186       20      -0.03333112       1.07139685      -0.38269274       0.14217798      -0.06667410      -0.55804193
S        4.55354171       6.16306008       0.85611037       21      -0.40616456      -0.04507015      -0.02293069       0.01416118      -0.39877275      -0.38142401
S        4.59194908       5.89476498       7.23371391       22      -0.41414434       0.24755281      -0.81426942       0.38650563       0.67934024       0.71766996
S        1.36418255       1.96674045       5.70222725       23      -0.05280113      -0.52254367      -0.15197348      -0.12588996      -0.01547366      -0.10330179
S        1.76089473       0.40088638       1.92560093       24      -0.51024356       2.16966664       0.58085459       0.16535330      -0.19895980       0.34774390
S        4.49145291       7.63075046      11.08811487       25      -0.91806869       0.31765861       1.61773114      -0.25269738       0.33252597      -0.30701321
S        4.77736844       7.62041366       4.38326114       26      -0.60968895      -1.29288650      -0.45470010       0.25945684       0.63056755       0.04036877
S        1.46571510       0.26404055       8.50749853       27       1.92110195       0.23244547      -0.21245524      -0.03309741       0.25371024      -0.00637394
S        4.54362986       4.11509489      11.15599748       28      -1.41776981      -0.50199943      -0.37828464       0.00283448       0.78655022       0.18512127
S        1.65426589       3.76819247       2.14870630       29      -0.94338534      -0.17706229      -0.03661513      -0.55080509      -0.07587779      -0.56363177
S        1.42419028       3.77149600       8.35067066       30      -0.02832290      -0.25556793       0.22402336      -0.24277079       0.06887347       0.51946259
S        4.82899480       4.25741558       4.66329329       31       0.18614941       0.65304164      -0.62179917      -0.48570564      -0.38731802      -1.01311898
32
Lattice="6.17176593 0.0 0.0 0.0 8.01859859 0.0 0.0 0.0 13.03281824" Properties=species:S:1:pos:R:3:spacegroup_kinds:I:1:momenta:R:3:forces:R:3 spacegroup="P 1" unit_cell=conventional occupancy="_JSON {\"0\": {\"Li\": 1}, \"1\": {\"Li\": 1}, \"2\": {\"Li\": 1}, \"3\": {\"Li\": 1}, \"4\": {\"Li\": 1}, \"5\": {\"Li\": 1}, \"6\": {\"Li\": 1}, \"7\": {\"Li\": 1}, \"8\": {\"Li\": 1}, \"9\": {\"Li\": 1}, \"10\": {\"Li\": 1}, \"11\": {\"Li\": 1}, \"12\": {\"P\": 1}, \"13\": {\"P\": 1}, \"14\": {\"P\": 1}, \"15\": {\"P\": 1}, \"16\": {\"S\": 1}, \"17\": {\"S\": 1}, \"18\": {\"S\": 1}, \"19\": {\"S\": 1}, \"20\": {\"S\": 1}, \"21\": {\"S\": 1}, \"22\": {\"S\": 1}, \"23\": {\"S\": 1}, \"24\": {\"S\": 1}, \"25\": {\"S\": 1}, \"26\": {\"S\": 1}, \"27\": {\"S\": 1}, \"28\": {\"S\": 1}, \"29\": {\"S\": 1}, \"30\": {\"S\": 1}, \"31\": {\"S\": 1}}" energy=-139.38731384277344 free_energy=-139.38731384277344 stress="0.0015894857933744788 -0.0005917485104873776 0.001602720469236374 -0.0005917485104873776 -0.009672824293375015 0.0030416767112910748 0.001602720469236374 0.0030416767112910748 -0.0072146132588386536" pbc="T T T"
Li       2.43205448       0.18609236       4.30830360        0      -0.01613098      -0.38342443      -0.14864504       0.16702969       0.20351756      -0.11486828
Li       3.87707155       7.98269065       8.86102505        1       0.19932580      -0.52912705      -0.08198866       0.05322999      -0.40578616       0.01061845
Li       5.63549053       7.81348691       2.15644013        2      -0.49010610      -0.54936259       0.21034003      -0.02951239      -0.14144495      -0.09571151
Li       0.72760232       0.26949041      10.83382840        3       0.33863963       0.02819262       0.66552967      -0.22829935       0.09152661       0.00498737
Li       3.75868600       4.41575279       8.63581686        4      -0.19735574       0.04649925       0.34648070      -0.26908863      -0.68423063       0.51715732
Li       2.50829968       3.61952313       4.39987645        5      -0.03486159       0.44260682       0.33655145      -0.24220073      -0.05979725      -0.08073412
Li       1.11740361       3.90329261      10.72088139        6       0.86336394       0.30601787      -0.58446500      -0.29965359       0.14233005       0.06561413
Li       5.37975861       4.26201641       2.22195722        7       0.67686599      -0.14730447      -0.42064978       0.01375967       0.20371489      -0.08050378
Li       3.20727925       0.39644045      -0.06031362        8       0.64068923      -0.11505484       0.32778977      -0.06359458       0.09622329       0.40441161
Li       0.30298280      -0.55774295       6.39343484        9      -0.13714260       0.12066578       0.03715783       0.03238526       0.12941961       0.05373468
Li       2.89332833       4.25157847       0.15473715       10       0.15291525       1.21529135      -0.34280591       0.01915553       0.11673912      -0.20952901
Li       0.11880531       4.06693105       6.48333916       11       0.31882335       0.03890145      -0.22430489      -0.14866012      -0.02312268      -0.10868647
P        0.90923811       2.07867629       1.17894790       12      -1.41207529       0.94513012      -0.13447262      -0.32319885       0.39219511      -0.49508876
P        5.26437568       5.88581948      11.96767515       13       0.18121733      -0.25133587       0.06039821      -0.03432867       1.00291634      -0.90482855
P        4.02781678       5.89292580       5.32317363       14       1.13829886      -1.35038516       0.16009764      -0.65167856       1.35959768      -0.22176275
P        2.17760273       1.98069227       7.55328535       15       0.79098891      -0.82884503      -0.13191502      -0.36824098       0.42050159       0.99701828
S        5.05499016       2.02850167       1.44537827       16       0.42869949       0.86698828       0.24974805      -0.21812934      -0.14007081      -0.19993609
S        1.17883790       6.12025225      11.76789681       17      -0.67605995       0.72383804       0.21701254      -0.83407110      -0.45616695       0.05001515
S        1.94791401       6.02959255       5.01566176       18      -1.58514182      -0.31504900      -0.46897695       0.33420968      -0.61750495       0.23693547