32
Lattice="6.17176593 0.0 0.0 0.0 8.01859859 0.0 0.0 0.0 13.03281824" Properties=species:S:1:pos:R:3:spacegroup_kinds:I:1:forces:R:3 spacegroup="P 1" unit_cell=conventional occupancy="_JSON {\"0\": {\"Li\": 1}, \"1\": {\"Li\": 1}, \"2\": {\"Li\": 1}, \"3\": {\"Li\": 1}, \"4\": {\"Li\": 1}, \"5\": {\"Li\": 1}, \"6\": {\"Li\": 1}, \"7\": {\"Li\": 1}, \"8\": {\"Li\": 1}, \"9\": {\"Li\": 1}, \"10\": {\"Li\": 1}, \"11\": {\"Li\": 1}, \"12\": {\"P\": 1}, \"13\": {\"P\": 1}, \"14\": {\"P\": 1}, \"15\": {\"P\": 1}, \"16\": {\"S\": 1}, \"17\": {\"S\": 1}, \"18\": {\"S\": 1}, \"19\": {\"S\": 1}, \"20\": {\"S\": 1}, \"21\": {\"S\": 1}, \"22\": {\"S\": 1}, \"23\": {\"S\": 1}, \"24\": {\"S\": 1}, \"25\": {\"S\": 1}, \"26\": {\"S\": 1}, \"27\": {\"S\": 1}, \"28\": {\"S\": 1}, \"29\": {\"S\": 1}, \"30\": {\"S\": 1}, \"31\": {\"S\": 1}}" energy=-140.31869506835938 free_energy=-140.31869506835938 stress="-0.00717061897739768 8.569077003528491e-09 8.83700934650733e-09 8.569077003528491e-09 -0.00825938768684864 -1.320365039525484e-09 8.83700934650733e-09 -1.320365039525484e-09 -0.005266285035759211" pbc="T T T"
Li       2.40329652       0.26860172       4.33400832        0      -0.02603533       0.00549087      -0.00432144
Li       3.76846941       7.74999687       8.69880992        1       0.02603655      -0.00549216       0.00432333
Li       5.48917948       7.74999687       2.18240080        2      -0.02603558      -0.00549057       0.00432293
Li       0.68258645       0.26860172      10.85041744        3       0.02603556       0.00549185      -0.00431983
Li       3.76846941       4.27790102       8.69880992        4       0.02603608       0.00549201       0.00432222
Li       2.40329652       3.74069757       4.33400832        5      -0.02603666      -0.00549142      -0.00432197
Li       0.68258645       3.74069757      10.85041744        6       0.02603585      -0.00549198      -0.00431967
Li       5.48917948       4.27790102       2.18240080        7      -0.02603586       0.00549081       0.00432259
Li       3.08588297       0.00000000       0.00000000        8      -0.00000071      -0.00000120      -0.00000054
Li       0.00000000       0.00000000       6.51640912        9       0.00000027      -0.00000055      -0.00000046
Li       3.08588297       4.00929929       0.00000000       10       0.00000015       0.00000145       0.00000036
Li       0.00000000       4.00929929       6.51640912       11       0.00000076       0.00000139      -0.00000107
P        0.94051010       2.00464965       1.16601784       12      -0.02067216       0.00000086       0.02376101
P        5.23125583       6.01394894      11.86680040       13       0.02066635      -0.00000152      -0.02375992
P        4.02639307       6.01394894       5.35039128       14      -0.02066752       0.00000109      -0.02375580
P        2.14537286       2.00464965       7.68242696       15       0.02066853      -0.00000173       0.02375688
S        5.08970823       2.00464965       1.30575389       16      -0.25450549       0.00000212       0.01679087
S        1.08205770       6.01394894      11.72706435       17       0.25450718      -0.00000071      -0.01679199
S        2.00382526       6.01394894       5.21065523       18      -0.25450596       0.00000074      -0.01679083
S        4.16794067       2.00464965       7.82216301       19       0.25450030      -0.00000034       0.01678992
S        1.68132889       2.00464965      12.25955363       20       0.10912287      -0.00000001      -0.16719744
S        4.49043704       6.01394894       0.77326461       21      -0.10912082      -0.00000005       0.16718169
S        4.76721186       6.01394894       7.28967373       22       0.10912116       0.00000002       0.16718009
S        1.40455407       2.00464965       5.74314451       23      -0.10911970      -0.00000002      -0.16718099
S        1.67233151       0.29287049       2.00524453       24       0.13957821      -0.21272618       0.08709955
S        4.49943442       7.72572810      11.02757371       25      -0.13957503       0.21272467      -0.08709283
S        4.75821447       7.72572810       4.51116459       26       0.13957551       0.21272521      -0.08709169
S        1.41355146       0.29287049       8.52165365       27      -0.13957593      -0.21272202       0.08709040
S        4.49943442       4.30216979      11.02757371       28      -0.13957758      -0.21272510      -0.08709257
S        1.67233151       3.71642880       2.00524453       29       0.13957766       0.21272641       0.08709955
S        1.41355146       3.71642880       8.52165365       30      -0.13957503       0.21272098       0.08709180
S        4.75821447       4.30216979       4.51116459       31       0.13957644      -0.21272494      -0.08709416
