4
Lattice="3.128588 0.0 0.0 -1.5642939988088433 2.709436998432005 0.0 0.0 0.0 5.016955" Properties=species:S:1:pos:R:3:spacegroup_kinds:I:1:momenta:R:3:forces:R:3 spacegroup="P 1" unit_cell=conventional occupancy="_JSON {\"0\": {\"Al\": 1}, \"1\": {\"Al\": 1}, \"2\": {\"N\": 1}, \"3\": {\"N\": 1}}" energy=-29.623743057250977 free_energy=-29.623743057250977 stress="0.004300219938158989 -0.008672689087688923 0.0028819807339459658 -0.008672689087688923 -0.006943753454834223 -0.0044345068745315075 0.0028819807339459658 -0.0044345068745315075 -0.014839117415249348" pbc="T T T"
Al       1.54321199       0.89379621       2.53645985        0      -0.00705490      -0.41529161       0.79444777      -0.25249958       0.39303017      -0.87834787
Al       0.03580902       1.79893952       4.98957806        1       0.09337944      -0.29525148      -0.61191771      -0.16601068       0.14058310       0.62745571
N        1.59619757       0.90645096       4.40111849        2      -0.02189822       1.09350666       0.27120856      -0.08899926      -0.09593863       0.34911489
N       -0.05911262       1.83464210       1.91219266        3      -0.06442634      -0.38296357      -0.45373865       0.50750941      -0.43767473      -0.09822283
