4
Lattice="3.128588 0.0 0.0 -1.5642939988088433 2.709436998432005 0.0 0.0 0.0 5.016955" Properties=species:S:1:pos:R:3:spacegroup_kinds:I:1:momenta:R:3:forces:R:3 spacegroup="P 1" unit_cell=conventional occupancy="_JSON {\"0\": {\"Al\": 1}, \"1\": {\"Al\": 1}, \"2\": {\"N\": 1}, \"3\": {\"N\": 1}}" energy=-29.673717498779297 free_energy=-29.673717498779297 stress="-0.0022253042552620173 -1.3674566616828088e-06 -1.2230524371048546e-09 -1.3674566616828088e-06 -0.0022271680645644665 -3.603964415788141e-08 -1.2230524371048546e-09 -3.603964415788141e-08 -0.005453737918287516" pbc="T T T"
Al       1.56429556       0.90314476       2.50490041        0       0.68448204       0.53670047       0.91071479      -0.00003539       0.00002024       0.00553106
Al      -0.00000156       1.80629224       5.01337791        1       0.31075784       0.39520501      -1.87833745       0.00003450      -0.00001874       0.00552451
N        1.56429556       0.90314476       4.41849749        2      -0.23293981      -0.79739853      -0.40745139      -0.00003630       0.00001881      -0.00552966
N       -0.00000156       1.80629224       1.91001999        3      -0.76230006      -0.13450696       1.37507406       0.00003711      -0.00002039      -0.00552515
4
Lattice="3.128588 0.0 0.0 -1.5642939988088433 2.709436998432005 0.0 0.0 0.0 5.016955" Properties=species:S:1:pos:R:3:spacegroup_kinds:I:1:momenta:R:3:forces:R:3 spacegroup="P 1" unit_cell=conventional occupancy="_JSON {\"0\": {\"Al\": 1}, \"1\": {\"Al\": 1}, \"2\": {\"N\": 1}, \"3\": {\"N\": 1}}" energy=-29.43359375 free_energy=-29.43359375 stress="-0.013773382641375065 -0.016446439549326897 0.012948804534971714 -0.016446439549326897 -0.02396886795759201 0.009969739243388176 0.012948804534971714 0.009969739243388176 -0.012059414759278297" pbc="T T T"
Al       1.60246141       0.92231284       2.54150849        0       0.57498235      -0.13491984       1.02882482      -1.31301379      -0.49033380      -0.87831295
Al       0.00328789       1.81111139       4.94718774        1      -0.44725799       0.00118039      -1.07867321      -0.30154103      -0.59423357       1.18011737
N        1.53678587       0.85870780       4.38099594        2       0.14052025      -0.46066715       0.20203863       0.28490710       0.67984599       1.25553679
N       -0.05228246       1.80432671       2.00436660        3      -0.26824461       0.59440661      -0.15219022       1.32964742       0.40472141      -1.55734134
4
Lattice="3.128588 0.0 0.0 -1.5642939988088433 2.709436998432005 0.0 0.0 0.0 5.016955" Properties=species:S:1:pos:R:3:spacegroup_kinds:I:1:momenta:R:3:forces:R:3 spacegroup="P 1" unit_cell=conventional occupancy="_JSON {\"0\": {\"Al\": 1}, \"1\": {\"Al\": 1}, \"2\": {\"N\": 1}, \"3\": {\"N\": 1}}" energy=-29.5672550201416 free_energy=-29.5672550201416 stress="0.01291572768241167 0.001702609471976757 0.0035793366841971874 0.001702609471976757 -0.0258571058511734 -0.005369127262383699 0.0035793366841971874 -0.005369127262383699 -0.011435232125222683" pbc="T T T"
Al       1.59598186       0.90138485       2.55101265        0      -0.85004003      -0.64755185      -0.41676305      -0.33522612       0.74370277      -1.26921248
Al      -0.01311800       1.79082858       4.96769658        1      -0.24557053      -0.74327787       1.65595795      -0.18280299      -0.17026761       1.21499717
N        1.52960409       0.86779351       4.41996342        2       0.16413094       0.60763579       0.63654585       0.31887725       0.39321387      -0.09056873
N       -0.00060095       1.87475191       1.90756519        3       0.93147961       0.78319392      -1.87574072       0.19915186      -0.96664906       0.14478415
4
Lattice="3.128588 0.0 0.0 -1.5642939988088433 2.709436998432005 0.0 0.0 0.0 5.016955" Properties=species:S:1:pos:R:3:spacegroup_kinds:I:1:momenta:R:3:forces:R:3 spacegroup="P 1" unit_cell=conventional occupancy="_JSON {\"0\": {\"Al\": 1}, \"1\": {\"Al\": 1}, \"2\": {\"N\": 1}, \"3\": {\"N\": 1}}" energy=-29.406274795532227 free_energy=-29.406274795532227 stress="0.010688851587474346 0.016498198732733727 -0.008163989521563053 0.016498198732733727 -0.009423165582120419 -0.015553941018879414 -0.008163989521563053 -0.015553941018879414 -0.061254072934389114" pbc="T T T"
Al       1.53423928       0.87298460       2.51007453        0      -1.60925387       0.09619219      -1.03262309       0.74608719       1.00298595       0.03482154
Al      -0.01349004       1.78470221       5.05709164        1       0.21561222      -0.04339758       1.72443252       0.02271211       0.40732950      -1.66436791
N        1.55208975       0.92225133       4.42203510        2       0.38659393       0.63935781      -0.93002914       0.04495849      -0.39009672      -0.56986165
N        0.09667399       1.88681818       1.81230437        3       1.00704771      -0.69215241       0.23821974      -0.81375778      -1.02021909       2.19940758
4
Lattice="3.128588 0.0 0.0 -1.5642939988088433 2.709436998432005 0.0 0.0 0.0 5.016955" Properties=species:S:1:pos:R:3:spacegroup_kinds:I:1:momenta:R:3:forces:R:3 spacegroup="P 1" unit_cell=conventional occupancy="_JSON {\"0\": {\"Al\": 1}, \"1\": {\"Al\": 1}, \"2\": {\"N\": 1}, \"3\": {\"N\": 1}}" energy=-29.201902389526367 free_energy=-29.201902389526367 stress="-0.026440896093845367 0.038155507296323776 -0.03138265386223793 0.038155507296323776 -0.004877446219325066 0.00154382293112576 -0.03138265386223793 0.00154382293112576 -0.05181988701224327" pbc="T T T"
Al       1.49382402       0.87740193       2.48150489        0      -0.08661624      -0.02748797       0.25595519       2.48428392      -0.46186846       1.22611976
Al      -0.02076738       1.79337853       5.08843294        1       0.00716747       0.60209092      -1.27068254       0.64723146       0.57433408      -2.36004305
N        1.60157223       0.96971682       4.33361321        2       0.49437261       0.53651002      -0.17473371      -0.53882527      -0.70145333       1.74609077
N        0.13924908       1.81421453       1.89535168        3      -0.41492385      -1.11111300       1.18946112      -2.59269047       0.58898753      -0.61216789
4
Lattice="3.128588 0.0 0.0 -1.5642939988088433 2.709436998432005 0.0 0.0 0.0 5.016955" Properties=species:S:1:pos:R:3:spacegroup_kinds:I:1:momenta:R:3:forces:R:3 spacegroup="P 1" unit_cell=conventional occupancy="_JSON {\"0\": {\"Al\": 1}, \"1\": {\"Al\": 1}, \"2\": {\"N\": 1}, \"3\": {\"N\": 1}}" energy=-29.574626922607422 free_energy=-29.574626922607422 stress="-0.02361799031496048 -0.014321424998342991 -0.011128061451017857 -0.014321424998342991 0.015029986388981342 -0.002854545135051012 -0.011128061451017857 -0.002854545135051012 -0.014440285973250866" pbc="T T T"
Al       1.53421963       0.88369270       2.53780580        0       1.55944087       0.36820898       1.55970997       0.29264253      -0.24000500      -0.91367394
Al      -0.00048007       1.82107765       4.98837342        1       1.01688576       0.86374288      -2.47525426       0.94369495       0.52251261       0.78486121
N        1.63583965       0.96584645       4.40663185        2      -0.31021913      -0.52489289       1.27117382      -1.15103757      -0.78906715       0.05687959
N       -0.01177523       1.75252281       1.90648733        3      -2.26610756      -0.70705899      -0.35562951      -0.08529980       0.50655955       0.07193319
4
Lattice="3.128588 0.0 0.0 -1.5642939988088433 2.709436998432005 0.0 0.0 0.0 5.016955" Properties=species:S:1:pos:R:3:spacegroup_kinds:I:1:momenta:R:3:forces:R:3 spacegroup="P 1" unit_cell=conventional occupancy="_JSON {\"0\": {\"Al\": 1}, \"1\": {\"Al\": 1}, \"2\": {\"N\": 1}, \"3\": {\"N\": 1}}" energy=-29.372074127197266 free_energy=-29.372074127197266 stress="-0.0056297071278095245 -0.018719376996159554 0.015849510207772255 -0.018719376996159554 -0.03227292746305466 0.017212314531207085 0.015849510207772255 0.017212314531207085 -0.007298374082893133" pbc="T T T"
Al       1.57072836       0.88046443       2.56331974        0      -0.00039269      -0.37629509      -0.57844072      -1.34386563      -0.44065884      -1.50707793
Al       0.05055073       1.86456080       4.94968571        1       0.52727026       0.77034101       1.04960214      -0.49128971      -1.36433744       1.82584763
N        1.58204796       0.88176660       4.44992392        2      -0.27832261      -1.02263329      -0.55459271       0.15003689       1.16376173      -0.85894883
N       -0.12661088       1.75915454       1.88869868        3      -0.24855503       0.62858736       0.08343140       1.68511844       0.64123440       0.54017901
4
Lattice="3.128588 0.0 0.0 -1.5642939988088433 2.709436998432005 0.0 0.0 0.0 5.016955" Properties=species:S:1:pos:R:3:spacegroup_kinds:I:1:momenta:R:3:forces:R:3 spacegroup="P 1" unit_cell=conventional occupancy="_JSON {\"0\": {\"Al\": 1}, \"1\": {\"Al\": 1}, \"2\": {\"N\": 1}, \"3\": {\"N\": 1}}" energy=-29.596925735473633 free_energy=-29.596925735473633 stress="0.01597617380321026 -0.004506102297455072 0.0060187894850969315 -0.004506102297455072 -0.025499287992715836 -0.004597074817866087 0.0060187894850969315 -0.004597074817866087 -0.01001378707587719" pbc="T T T"
Al       1.53284806       0.86390066       2.51395076        0      -1.59464595      -0.16469711      -1.74991253      -0.27820385       0.89915657      -0.15420316
Al       0.06317843       1.83227863       5.00948380        1       0.38440020      -1.80666617       1.59449849      -0.58708447      -0.41271284       0.16724803
N        1.58572474       0.89623790       4.41422579        2       0.14193183       1.12964954      -0.09119112       0.25704005       0.38076329       0.00228143
N       -0.08152105       1.83862421       1.90381444        3       1.06831387       0.84171377       0.24660518       0.60824800      -0.86720693      -0.01532660
4
Lattice="3.128588 0.0 0.0 -1.5642939988088433 2.709436998432005 0.0 0.0 0.0 5.016955" Properties=species:S:1:pos:R:3:spacegroup_kinds:I:1:momenta:R:3:forces:R:3 spacegroup="P 1" unit_cell=conventional occupancy="_JSON {\"0\": {\"Al\": 1}, \"1\": {\"Al\": 1}, \"2\": {\"N\": 1}, \"3\": {\"N\": 1}}" energy=-29.462553024291992 free_energy=-29.462553024291992 stress="-0.005697193555533886 0.010849465616047382 -0.003906603436917067 0.010849465616047382 -0.0191337913274765 -0.012703249230980873 -0.003906603436917067 -0.012703249230980873 -0.011871409602463245" pbc="T T T"
Al       1.48347326       0.88264393       2.44527933        0      -0.30454533       1.01149518      -0.60004457       0.88393146       0.95768416       1.70777047
Al       0.06164410       1.77681258       5.07306068        1      -0.86715293      -0.75617370       0.43048881      -0.30080634       0.71655369      -1.72280085
N        1.61717710       0.94947187       4.40498429        2       0.38645904       0.04830071       0.18623264      -0.07234014      -0.67486042       0.48910767
N       -0.01486928       1.85626150       1.92266700        3       0.78523919      -0.30362216      -0.01667681      -0.51078522      -0.99937725      -0.47407737
4
Lattice="3.128588 0.0 0.0 -1.5642939988088433 2.709436998432005 0.0 0.0 0.0 5.016955" Properties=species:S:1:pos:R:3:spacegroup_kinds:I:1:momenta:R:3:forces:R:3 spacegroup="P 1" unit_cell=conventional occupancy="_JSON {\"0\": {\"Al\": 1}, \"1\": {\"Al\": 1}, \"2\": {\"N\": 1}, \"3\": {\"N\": 1}}" energy=-29.518747329711914 free_energy=-29.518747329711914 stress="-0.023370683193206787 0.006540002301335335 -0.016098054125905037 0.006540002301335335 0.006697414442896843 -0.000482445175293833 -0.016098054125905037 -0.000482445175293833 -0.022160353139042854" pbc="T T T"
Al       1.50607637       0.94974319       2.46463702        0       1.15921406       0.62635249       1.50689866       1.24247503      -0.60704660       1.15697372
Al       0.01335469       1.75088041       5.06242871        1      -0.91112029       0.14825302      -0.88962507       0.51474661       0.69610620      -1.43088555
N        1.62637960       0.90489619       4.42127854        2      -0.14223527      -0.64065094       0.21498314      -0.71771717      -0.51824176      -0.07984785
N        0.02538010       1.82158365       1.88963026        3      -0.10585859      -0.13395451      -0.83225666      -1.03950453       0.42918235       0.35376009
4
Lattice="3.128588 0.0 0.0 -1.5642939988088433 2.709436998432005 0.0 0.0 0.0 5.016955" Properties=species:S:1:pos:R:3:spacegroup_kinds:I:1:momenta:R:3:forces:R:3 spacegroup="P 1" unit_cell=conventional occupancy="_JSON {\"0\": {\"Al\": 1}, \"1\": {\"Al\": 1}, \"2\": {\"N\": 1}, \"3\": {\"N\": 1}}" energy=-29.60500717163086 free_energy=-29.60500717163086 stress="0.0015960896853357553 -0.006785777397453785 -0.00309526058845222 -0.006785777397453785 0.0017807199619710445 0.0017242167377844453 -0.00309526058845222 0.0017242167377844453 -0.02311391569674015" pbc="T T T"
Al       1.56693926       0.93861031       2.54470912        0       1.44875321      -0.98943826       1.48437300      -0.01659490      -0.29131597      -1.20300579
Al      -0.01304570       1.78057347       4.99752455        1       0.01689821       1.11024899      -1.70729867       0.38438767       0.02358220       0.50760168
N        1.58384204       0.87104970       4.42155567        2      -0.67927510      -0.02704877      -0.19037175      -0.39236951       0.15178019      -0.39792335
N        0.00122207       1.81989277       1.85992052        3      -0.78637638      -0.09376194       0.41329748       0.02457668       0.11595353       1.09332716
4
Lattice="3.128588 0.0 0.0 -1.5642939988088433 2.709436998432005 0.0 0.0 0.0 5.016955" Properties=species:S:1:pos:R:3:spacegroup_kinds:I:1:momenta:R:3:forces:R:3 spacegroup="P 1" unit_cell=conventional occupancy="_JSON {\"0\": {\"Al\": 1}, \"1\": {\"Al\": 1}, \"2\": {\"N\": 1}, \"3\": {\"N\": 1}}" energy=-29.470205307006836 free_energy=-29.470205307006836 stress="0.0032031002920120955 -0.017801433801651 0.011838366277515888 -0.017801433801651 -0.04134911298751831 0.0073599438183009624 0.011838366277515888 0.0073599438183009624 -0.005160318221896887" pbc="T T T"
Al       1.62755628       0.89950078       2.54516751        0       1.04970736      -0.99981916      -0.80202952      -1.41065061       0.15933153      -0.91778779
Al      -0.00757058       1.81703571       4.95606290        1      -0.03758025       0.11959869      -0.16512803      -0.26242864      -0.84351408       1.41445601
N        1.52756231       0.85151206       4.42065483        2      -0.42752187       0.29023029      -0.07965661       0.31766039       0.98894465      -0.00115310
N       -0.06966666       1.84442113       1.93994532        3      -0.58460533       0.58999018       1.04681421       1.35541892      -0.30476230      -0.49551517
4
Lattice="3.128588 0.0 0.0 -1.5642939988088433 2.709436998432005 0.0 0.0 0.0 5.016955" Properties=species:S:1:pos:R:3:spacegroup_kinds:I:1:momenta:R:3:forces:R:3 spacegroup="P 1" unit_cell=conventional occupancy="_JSON {\"0\": {\"Al\": 1}, \"1\": {\"Al\": 1}, \"2\": {\"N\": 1}, \"3\": {\"N\": 1}}" energy=-29.45298957824707 free_energy=-29.45298957824707 stress="-0.013224710710346699 -0.02375013381242752 0.007911473512649536 -0.02375013381242752 -0.047931864857673645 -0.0073333485051989555 0.007911473512649536 -0.0073333485051989555 0.028632842004299164" pbc="T T T"
Al       1.63184039       0.85684028       2.46693548        0      -0.97589022      -0.55899526      -1.34838368      -1.39009762       1.11026454       1.17304087
Al      -0.02377747       1.82170281       4.98999601        1      -0.28018824       0.45883562       1.28013440      -0.08532430       0.08283382       0.34697255
N        1.52792697       0.92957749       4.44479009        2       0.11446455       0.97873190       0.08012595       0.22035959      -0.17398709       0.05598485
N       -0.04718867       1.83921503       2.00086008        3       1.14161382      -0.87857228      -0.01187663       1.25506186      -1.01911139      -1.57599843
4
Lattice="3.128588 0.0 0.0 -1.5642939988088433 2.709436998432005 0.0 0.0 0.0 5.016955" Properties=species:S:1:pos:R:3:spacegroup_kinds:I:1:momenta:R:3:forces:R:3 spacegroup="P 1" unit_cell=conventional occupancy="_JSON {\"0\": {\"Al\": 1}, \"1\": {\"Al\": 1}, \"2\": {\"N\": 1}, \"3\": {\"N\": 1}}" energy=-29.536319732666016 free_energy=-29.536319732666016 stress="-0.019857589155435562 0.013829011470079422 -0.005717291962355375 0.013829011470079422 -0.0031639926601201296 -0.0016710038762539625 -0.005717291962355375 -0.0016710038762539625 -0.006260287016630173" pbc="T T T"
Al       1.56291509       0.86348349       2.43836898        0      -1.44558767       0.38889139       0.34075025       0.67285669       0.11609460       1.45909476
Al      -0.01834144       1.83613138       5.05736566        1       0.19731500      -0.00921485       1.04742009       0.06595068       0.15003590      -1.19266963
N        1.54726694       0.95741144       4.47045647        2      -0.01024004       0.05684998       0.14844053       0.09761605      -0.44420847      -0.65174550
N        0.05576965       1.77068660       1.90062732        3       1.25851262      -0.43652653      -1.53661082      -0.83642340       0.17807814       0.38532060
4
Lattice="3.128588 0.0 0.0 -1.5642939988088433 2.709436998432005 0.0 0.0 0.0 5.016955" Properties=species:S:1:pos:R:3:spacegroup_kinds:I:1:momenta:R:3:forces:R:3 spacegroup="P 1" unit_cell=conventional occupancy="_JSON {\"0\": {\"Al\": 1}, \"1\": {\"Al\": 1}, \"2\": {\"N\": 1}, \"3\": {\"N\": 1}}" energy=-29.5310001373291 free_energy=-29.5310001373291 stress="-0.01829410530626774 0.01570742391049862 -0.01160774938762188 0.01570742391049862 0.0031476952135562897 0.004605633206665516 -0.01160774938762188 0.004605633206665516 -0.01725858449935913" pbc="T T T"
Al       1.54701078       0.87273547       2.46070918        0       0.71855764      -0.11584374       0.49435359       1.07476747      -0.28505775       1.06925440
Al      -0.01761630       1.84389396       5.05391114        1       0.19346411       0.17720377      -0.69190061       0.23187347      -0.07941879      -1.16825140
N        1.56395349       0.94331119       4.45961404        2       0.32487449      -0.12409379      -0.51346221      -0.11546890      -0.20503235      -0.72920626
N        0.06831345       1.75176760       1.87546341        3      -1.23689630       0.06273372       0.71100926      -1.19117212       0.56950903       0.82820308
4
Lattice="3.128588 0.0 0.0 -1.5642939988088433 2.709436998432005 0.0 0.0 0.0 5.016955" Properties=species:S:1:pos:R:3:spacegroup_kinds:I:1:momenta:R:3:forces:R:3 spacegroup="P 1" unit_cell=conventional occupancy="_JSON {\"0\": {\"Al\": 1}, \"1\": {\"Al\": 1}, \"2\": {\"N\": 1}, \"3\": {\"N\": 1}}" energy=-29.61321258544922 free_energy=-29.61321258544922 stress="-0.008381746709346771 -0.004276755731552839 0.005492941942065954 -0.004276755731552839 -0.01393703743815422 0.0014805021928623319 0.005492941942065954 0.0014805021928623319 0.012475353665649891" pbc="T T T"
Al       1.57767911       0.87033376       2.48321565        0       0.42145777      -0.10086139       0.75449341      -0.50599557       0.14215229       0.64868647
Al       0.00878679       1.84488741       5.00616580        1       0.94842477       0.04829644      -0.67234536      -0.28191084      -0.37569898       0.05942391
N        1.54733735       0.91884314       4.41695258        2      -0.50233531      -0.06173789      -0.86681703       0.26756856       0.16352609       0.34766677
N       -0.02491946       1.77881440       1.96659668        3      -0.86754726       0.11430283       0.78466904       0.52033788       0.07002061      -1.05577683
4
Lattice="3.128588 0.0 0.0 -1.5642939988088433 2.709436998432005 0.0 0.0 0.0 5.016955" Properties=species:S:1:pos:R:3:spacegroup_kinds:I:1:momenta:R:3:forces:R:3 spacegroup="P 1" unit_cell=conventional occupancy="_JSON {\"0\": {\"Al\": 1}, \"1\": {\"Al\": 1}, \"2\": {\"N\": 1}, \"3\": {\"N\": 1}}" energy=-29.55784034729004 free_energy=-29.55784034729004 stress="-0.01636377163231373 -0.002947821980342269 0.012903835624456406 -0.002947821980342269 -0.006207557395100594 0.001537687610834837 0.012903835624456406 0.001537687610834837 -0.002714787609875202" pbc="T T T"
Al       1.59068811       0.88023423       2.52274585        0      -0.41625649       0.17887056       0.33160793      -0.90884435      -0.14031042      -0.36868137
Al       0.01872289       1.83477378       4.97781998        1       0.14973987      -0.20763045      -0.17578484      -0.72829670      -0.10046259       0.72652948
N        1.52039171       0.92490000       4.39464373        2       0.19754384       0.25939898       0.47781810       0.72475821      -0.09605177       0.71573931
N       -0.04216860       1.77342030       1.96745698        3       0.06897276      -0.23063912      -0.63364115       0.91238308       0.33682451      -1.07358730
4
Lattice="3.128588 0.0 0.0 -1.5642939988088433 2.709436998432005 0.0 0.0 0.0 5.016955" Properties=species:S:1:pos:R:3:spacegroup_kinds:I:1:momenta:R:3:forces:R:3 spacegroup="P 1" unit_cell=conventional occupancy="_JSON {\"0\": {\"Al\": 1}, \"1\": {\"Al\": 1}, \"2\": {\"N\": 1}, \"3\": {\"N\": 1}}" energy=-29.621109008789062 free_energy=-29.621109008789062 stress="-0.021500686183571815 0.005276324227452278 -0.0032674488611519337 0.005276324227452278 0.010657881386578083 0.0019248591270297766 -0.0032674488611519337 0.0019248591270297766 -0.0015897756675258279" pbc="T T T"
Al       1.54767648       0.89587759       2.50832856        0      -0.85809928       0.46896585      -1.00002997       0.39160237      -0.39029077      -0.15032688
Al       0.00665800       1.82067517       5.00342501        1      -0.72966904      -0.11082592       1.46536680      -0.00949463       0.22696990       0.34862944
N        1.57185931       0.94293302       4.45440722        2       0.62349840      -0.37686579       0.64593211      -0.01970158      -0.43335310      -0.83889955
N        0.01256033       1.75229419       1.88600533        3       0.96426991       0.01872583      -1.11126892      -0.36240613       0.59667397       0.64059722
4
Lattice="3.128588 0.0 0.0 -1.5642939988088433 2.709436998432005 0.0 0.0 0.0 5.016955" Properties=species:S:1:pos:R:3:spacegroup_kinds:I:1:momenta:R:3:forces:R:3 spacegroup="P 1" unit_cell=conventional occupancy="_JSON {\"0\": {\"Al\": 1}, \"1\": {\"Al\": 1}, \"2\": {\"N\": 1}, \"3\": {\"N\": 1}}" energy=-29.520856857299805 free_energy=-29.520856857299805 stress="-0.014047504402697086 0.011820956133306026 -0.014255587942898273 0.011820956133306026 -0.0056150867603719234 0.009361482225358486 -0.014255587942898273 0.009361482225358486 -0.019570928066968918" pbc="T T T"
Al       1.52999429       0.91403915       2.46474574        0       0.09545131      -0.23101206      -1.18071283       1.21875489      -0.63577133       0.99289966
Al      -0.00890653       1.82180736       5.05208966        1       0.31216942      -0.10747455       0.45537603       0.39472419      -0.38378584      -1.12710166
N        1.59437710       0.88605553       4.45928988        2      -0.04799020      -0.53350352      -0.20523312      -0.40810227       0.35579112      -0.79021555
N        0.05384441       1.77207213       1.87145002        3      -0.35963054       0.87199013       0.93056994      -1.20537663       0.66376615       0.92441761
4
Lattice="3.128588 0.0 0.0 -1.5642939988088433 2.709436998432005 0.0 0.0 0.0 5.016955" Properties=species:S:1:pos:R:3:spacegroup_kinds:I:1:momenta:R:3:forces:R:3 spacegroup="P 1" unit_cell=conventional occupancy="_JSON {\"0\": {\"Al\": 1}, \"1\": {\"Al\": 1}, \"2\": {\"N\": 1}, \"3\": {\"N\": 1}}" energy=-29.618785858154297 free_energy=-29.618785858154297 stress="0.010117979720234871 -0.0018221298232674599 -0.001873083645477891 -0.0018221298232674599 -0.02478298544883728 0.004591125063598156 -0.001873083645477891 0.004591125063598156 2.6657720809453167e-05" pbc="T T T"
Al       1.53818032       0.90928017       2.47247637        0       0.23228456      -0.27447319       1.41733297       0.21200721       0.18702376       0.85529983
Al       0.01802693       1.81430746       5.03506511        1       0.60360838      -0.42930340      -1.11140745       0.03760352      -0.69444299      -0.55142164
N        1.59518013       0.85128046       4.42414646        2       0.09084635       0.02420739      -0.77345512      -0.19470420       0.84070671       0.01228109
N       -0.01452989       1.83034432       1.92467362        3      -0.92673928       0.67956926       0.46752962      -0.05490655      -0.33328748      -0.31615925
4
Lattice="3.128588 0.0 0.0 -1.5642939988088433 2.709436998432005 0.0 0.0 0.0 5.016955" Properties=species:S:1:pos:R:3:spacegroup_kinds:I:1:momenta:R:3:forces:R:3 spacegroup="P 1" unit_cell=conventional occupancy="_JSON {\"0\": {\"Al\": 1}, \"1\": {\"Al\": 1}, \"2\": {\"N\": 1}, \"3\": {\"N\": 1}}" energy=-29.623743057250977 free_energy=-29.623743057250977 stress="0.004300219938158989 -0.008672689087688923 0.0028819807339459658 -0.008672689087688923 -0.006943753454834223 -0.0044345068745315075 0.0028819807339459658 -0.0044345068745315075 -0.014839117415249348" pbc="T T T"
Al       1.54321199       0.89379621       2.53645985        0      -0.00705490      -0.41529161       0.79444777      -0.25249958       0.39303017      -0.87834787
Al       0.03580902       1.79893952       4.98957806        1       0.09337944      -0.29525148      -0.61191771      -0.16601068       0.14058310       0.62745571
N        1.59619757       0.90645096       4.40111849        2      -0.02189822       1.09350666       0.27120856      -0.08899926      -0.09593863       0.34911489
N       -0.05911262       1.83464210       1.91219266        3      -0.06442634      -0.38296357      -0.45373865       0.50750941      -0.43767473      -0.09822283
