56
Lattice="10.7619164 0.0 0.0 -9.665296305262016 4.732958053065482 0.0 -0.5483100463354086 -2.3664790220718444 10.484177494289693" Properties=species:S:1:pos:R:3:spacegroup_kinds:I:1:momenta:R:3:forces:R:3 spacegroup="P 1" unit_cell=conventional occupancy="_JSON {\"0\": {\"H\": 1}, \"1\": {\"H\": 1}, \"2\": {\"H\": 1}, \"3\": {\"H\": 1}, \"4\": {\"H\": 1}, \"5\": {\"H\": 1}, \"6\": {\"H\": 1}, \"7\": {\"H\": 1}, \"8\": {\"H\": 1}, \"9\": {\"H\": 1}, \"10\": {\"H\": 1}, \"11\": {\"H\": 1}, \"12\": {\"H\": 1}, \"13\": {\"H\": 1}, \"14\": {\"H\": 1}, \"15\": {\"H\": 1}, \"16\": {\"H\": 1}, \"17\": {\"H\": 1}, \"18\": {\"H\": 1}, \"19\": {\"H\": 1}, \"20\": {\"H\": 1}, \"21\": {\"H\": 1}, \"22\": {\"H\": 1}, \"23\": {\"H\": 1}, \"24\": {\"H\": 1}, \"25\": {\"H\": 1}, \"26\": {\"H\": 1}, \"27\": {\"H\": 1}, \"28\": {\"H\": 1}, \"29\": {\"H\": 1}, \"30\": {\"H\": 1}, \"31\": {\"H\": 1}, \"32\": {\"C\": 1}, \"33\": {\"C\": 1}, \"34\": {\"C\": 1}, \"35\": {\"C\": 1}, \"36\": {\"C\": 1}, \"37\": {\"C\": 1}, \"38\": {\"C\": 1}, \"39\": {\"C\": 1}, \"40\": {\"C\": 1}, \"41\": {\"C\": 1}, \"42\": {\"C\": 1}, \"43\": {\"C\": 1}, \"44\": {\"C\": 1}, \"45\": {\"C\": 1}, \"46\": {\"C\": 1}, \"47\": {\"C\": 1}, \"48\": {\"O\": 1}, \"49\": {\"O\": 1}, \"50\": {\"O\": 1}, \"51\": {\"O\": 1}, \"52\": {\"O\": 1}, \"53\": {\"O\": 1}, \"54\": {\"O\": 1}, \"55\": {\"O\": 1}}" energy=-313.6218566894531 free_energy=-313.6218566894531 stress="-0.006905551068484783 -0.0013852233532816172 -0.004504757467657328 -0.0013852233532816172 0.009439297951757908 0.0056001353077590466 -0.004504757467657328 0.0056001353077590466 0.013407100923359394" pbc="T T T"
H        0.49738839       1.84331530       1.77824721        0      -0.10613471      -0.09781617       0.11564484      -0.18202150       0.31332466       0.59539485
H        0.10556106      -0.11663682       8.27653523        1       0.04015864      -0.13169717       0.14437735      -0.36897856      -0.78898990       0.22590685
H        6.62289127      -0.91207473       5.20265705        2      -0.16864457       0.10450171      -0.19164104       0.98594606      -0.03108536       0.77322006
H        3.36922876       0.56254891       5.08036124        3       0.12068255      -0.12391013       0.11663959      -0.39409471      -0.59535736      -0.23537561
H        5.95301315       0.59228738       3.38812095        4       0.14111191      -0.33747165      -0.07872034      -0.93092179      -0.50391853       0.87667984
H        5.01743976       0.42520633       7.32442001        5      -0.23162776       0.06489147      -0.14197856      -0.38864538      -1.26104426      -0.47847223
H       -1.57731817       0.54128669      10.53958302        6      -0.12407064      -0.08817017      -0.07763507      -0.37741992      -0.46802190       0.30722481
H        2.69863477       2.00433418       0.26116691        7      -0.05404113       0.01557094      -0.10225908      -0.72495806      -0.67533696      -0.86531168
H       -1.22303967       1.63674013       1.75940503        8      -0.05424963       0.24253130      -0.13897910      -0.49741733      -0.09367162       0.10530564
H       -8.93359173       2.96971042       8.47514783        9      -0.06041798      -0.12559701      -0.10761867       0.36622986      -0.63053465       0.55258781
H       -2.26849143       4.25936924       6.83350224       10       0.20578892       0.12214587       0.33238161      -0.06949987      -0.47620258      -0.34378648
H       -6.68836086       4.95609513       3.39407503       11      -0.06212347       0.10326023      -0.15892916       0.13254218      -0.56484824       0.15243542
H       -3.12925522       0.32645854       3.01954338       12       0.09286567       0.17897966      -0.00989685       0.31408843       0.11225861       0.01380603
H       -6.80751046       1.79512254       7.74588642       13       0.11313703      -0.05419618      -0.04504064      -2.35595798       0.59495425      -0.52510244
H       -1.67751198       0.97559886       8.80862460       14       0.00516234      -0.30016369      -0.16851555      -0.66054392       0.17537269       0.81925774
H       -7.85157860       2.25969155       2.02092912       15       0.06193701       0.16966467       0.04109259       0.45021570       0.30493265      -0.97372174
H       -1.03679279       0.54726075       4.10971765       16       0.09384512       0.18126028      -0.07858817       0.29054305       0.47456101       0.73892766
H        1.41496418       2.60741857       5.94194810       17       0.17914768       0.16207848      -0.08142929       0.04019479      -0.18982039       0.67823350
H       -0.64058342       2.00872415       6.06364863       18      -0.05634355       0.12337356       0.04032452      -0.53551424       0.51595664      -0.09275781
H        0.85977727      -0.92446423       4.06230119       19       0.08226697       0.01615518       0.13954184      -0.43777537      -0.05474742       0.42652506
H        7.07832381       1.52716389       0.77918387       20       0.03746005       0.06298943      -0.11847516      -0.51152194      -0.36470374      -0.19009309
H       -5.65481885       2.28567767       9.73115033       21       0.07723507       0.36926375      -0.07796243       0.09997720      -0.39059031       0.05155025
H        6.08095761      -2.02800081       9.57309348       22       0.04996226       0.13992132      -0.04251221       0.10451876      -0.44055620      -0.00563396
H       -5.39307784       3.26285549       1.28813541       23      -0.08191944      -0.05415616       0.26986996      -0.86360776      -0.75486195      -0.77635479
H       -0.07299405       0.27971714       1.81917006       24       0.13898027       0.34269412       0.14181160      -0.42564034      -0.34437636       0.62044847
H       -1.06700038      -1.51563961       8.21163887       25      -0.20145649       0.01373140       0.07616510      -0.17211236      -0.24385011       0.51165289
H       -2.96209875       2.60530167       6.43440247       26       0.06315605      -0.07175178      -0.16381490       0.16210479       0.09859672       0.31126237
H       -6.35719998       3.51669278       4.57538943       27       0.16449819       0.18567677       0.02440270      -0.60309958       1.40273428      -0.34498477
H       -3.82677252       2.00991111       3.18430567       28       0.08980683      -0.11710621      -0.00472115       0.23108783       0.02060308      -0.20068792
H       -5.17636476       2.03285264       7.19923481       29       0.10905437      -0.18779558       0.15105856      -0.36807618      -0.23564427       0.74253529
H       -0.79357705       4.53174543      -0.43569599       30      -0.12628122      -0.10201774      -0.01900768      -0.09978220       0.06217094       0.11299157
H        2.31575722       1.30675585      11.36317815       31       0.12164126       0.07458546      -0.08519217       0.08103485      -0.48911107      -0.09376578
C       -0.37163610       1.38708492       3.80590656       32       0.82677599       0.29513643       0.09766037       0.43048388      -0.84297347      -2.02712393
C        0.11847906      -1.18778290       6.49983790       33      -0.62840355      -0.18736646      -0.14627793      -0.37041044       0.27213514      -0.96542168
C       -0.97555891       2.96185311       5.57576509       34      -0.36449136      -1.07571770       0.20948615       0.37155777       0.17796886       0.59155667
C        1.35011582      -0.15700504       4.68315330       35      -0.02227946       0.95830775       0.13073003       0.73833978       1.50494683       0.40339458
C        6.36784107       0.86650850       1.33870140       36       0.30590322       0.88519155       1.28776815       1.97927439      -0.30295721       0.89317667
C       -5.53677838       1.29363393       9.24627682       37       0.27688541      -0.37684076       0.66636557      -0.66257936      -0.77055955       0.58605099
C       -3.39932682       1.69730085      10.02118755       38      -0.84111722      -0.44256712       0.59809790       0.37919456       0.54998875       0.65976107
C        4.71880458       2.50518204       0.70336311       39       0.38984900       0.88224459      -0.51305335      -0.59657609       1.44276929       0.49370635
C       -0.32683931       1.26219657       2.24609218       40      -0.63948340       0.50546027       0.23424603       0.77352017       0.79703200      -0.39456153
C       -0.05210459      -1.19852041       8.01058161       41       0.11581992      -0.65736554      -0.92748214       0.85169220       1.37446809      -1.02301908
C       -2.37909919       3.46525740       6.06278724       42      -0.05353346       0.08467071      -0.15002925      -0.40586278      -0.60533357      -1.67186451
C        2.83806349      -0.17358533       4.41939532       43       0.55230130       0.76816532      -0.43149840       1.06821835      -0.67907560       0.54370046
C        6.77902029       0.98017831       2.84378923       44      -1.12306884      -0.45029274       0.26640054      -0.51441181       0.02889524      -1.28143239
C       -5.86817707       1.36776547       7.79427942       45      -0.98979957      -0.05587656      -0.83441409       2.87888193       1.13956821      -0.55467308
C       -1.97699421       1.28319947       9.85895605       46       0.40696806      -0.18667801       0.33790488       1.72743595       0.51336348      -1.56751847
C        3.19008790       2.61285397       0.97606104       47       0.25747571       0.90121076      -0.18333499       1.07156992       1.22872174       1.82996702
O       -0.85758719       2.66103177       4.11713038       48       0.61684431      -0.37118562       1.25663901      -0.17585242       0.40347925       1.06925380
O        1.08909391      -0.23997555       6.12862843       49      -0.39618520      -0.37804556      -0.11483621       0.12260295      -0.37597385      -0.82797438
O       -1.16050474      -0.72093717       5.97406323       50      -0.34983844      -1.05740102      -0.27246636      -0.47367322      -0.41498387      -0.96765840
O        1.00795477       1.19208942       4.24044432       51      -0.03056911       0.15482677      -1.24559247      -1.03327155      -0.52625513       0.63128996
O       -3.10184428       4.20162628       0.97719065       52      -0.29226571       0.28802611      -0.94690395      -0.31202132       1.32850492      -0.04798031
O        4.30825706       0.33413970       9.75623655       53       0.02704219      -1.15722877      -0.33726867      -0.25941110       0.04011939       0.50478446
O       -4.24389643       0.74756658       9.49746212       54       0.41595680      -0.82784527       0.02625952       0.13964134       0.06730327      -0.42571044
O        5.02961374       1.21054924       1.07684150       55       0.87862592       0.61974494       1.29120644      -0.01923759      -0.82934535       0.05839928
