56
Lattice="10.7619164 0.0 0.0 -9.665296305262016 4.732958053065482 0.0 -0.5483100463354086 -2.3664790220718444 10.484177494289693" Properties=species:S:1:pos:R:3:spacegroup_kinds:I:1:momenta:R:3:forces:R:3 spacegroup="P 1" unit_cell=conventional occupancy="_JSON {\"0\": {\"H\": 1}, \"1\": {\"H\": 1}, \"2\": {\"H\": 1}, \"3\": {\"H\": 1}, \"4\": {\"H\": 1}, \"5\": {\"H\": 1}, \"6\": {\"H\": 1}, \"7\": {\"H\": 1}, \"8\": {\"H\": 1}, \"9\": {\"H\": 1}, \"10\": {\"H\": 1}, \"11\": {\"H\": 1}, \"12\": {\"H\": 1}, \"13\": {\"H\": 1}, \"14\": {\"H\": 1}, \"15\": {\"H\": 1}, \"16\": {\"H\": 1}, \"17\": {\"H\": 1}, \"18\": {\"H\": 1}, \"19\": {\"H\": 1}, \"20\": {\"H\": 1}, \"21\": {\"H\": 1}, \"22\": {\"H\": 1}, \"23\": {\"H\": 1}, \"24\": {\"H\": 1}, \"25\": {\"H\": 1}, \"26\": {\"H\": 1}, \"27\": {\"H\": 1}, \"28\": {\"H\": 1}, \"29\": {\"H\": 1}, \"30\": {\"H\": 1}, \"31\": {\"H\": 1}, \"32\": {\"C\": 1}, \"33\": {\"C\": 1}, \"34\": {\"C\": 1}, \"35\": {\"C\": 1}, \"36\": {\"C\": 1}, \"37\": {\"C\": 1}, \"38\": {\"C\": 1}, \"39\": {\"C\": 1}, \"40\": {\"C\": 1}, \"41\": {\"C\": 1}, \"42\": {\"C\": 1}, \"43\": {\"C\": 1}, \"44\": {\"C\": 1}, \"45\": {\"C\": 1}, \"46\": {\"C\": 1}, \"47\": {\"C\": 1}, \"48\": {\"O\": 1}, \"49\": {\"O\": 1}, \"50\": {\"O\": 1}, \"51\": {\"O\": 1}, \"52\": {\"O\": 1}, \"53\": {\"O\": 1}, \"54\": {\"O\": 1}, \"55\": {\"O\": 1}}" energy=-315.20623779296875 free_energy=-315.20623779296875 stress="0.0015259512001648545 -0.0007349839434027672 -5.940163418927114e-07 -0.0007349839434027672 -0.0014768083347007632 6.392762941231922e-08 -5.940163418927114e-07 6.392762941231922e-08 0.0016980115324258804" pbc="T T T"
H       -0.01248427       2.27696696       1.83153339        0       0.26354636       0.05758816       0.17128558       0.07122718       0.02707796       0.05251650
H        0.46428407      -0.32702137       8.65264411        1       0.35723632       0.30052336      -0.15421514      -0.05205560       0.05564430      -0.05251602
H        7.11696904      -0.62167877       5.76820574        2       0.13651140      -0.03657588      -0.02448058       0.06071821       0.02959768      -0.06332409
H        3.54843712       0.20514534       4.71597175        3       0.04495575       0.01373704       0.24194406      -0.04159837       0.05318651       0.06330303
H        5.94175252       0.08951207       3.41055536        4       0.10004105       0.00919574       0.06893732      -0.07122713      -0.02707744      -0.05251760
H        4.91667413       0.32702137       7.07362213        5       0.03762731       0.23702154      -0.03633186       0.05205703      -0.05563801       0.05251881
H       -1.73601084       0.62167878       9.95806050        6       0.04090260      -0.15000140      -0.41043770      -0.06071898      -0.02958633       0.06332503
H        2.38083113       2.16133369       0.52611700        7       0.07639930       0.13373956      -0.11953039       0.04159801      -0.05318537      -0.06330170
H       -1.38564785       1.18011340       2.11584331        8       0.34764813      -0.24942510       0.01968671       0.00912127       0.09641389       0.00989608
H       -8.45014457       2.81694541       8.36833418        9      -0.04487542       0.24826795       0.27191556       0.03391363       0.09078161      -0.00994016
H       -2.58250803       2.70418269       6.85836100       10       0.00836639       0.05472545      -0.13232917       0.03144372       0.09145371       0.01228160
H       -6.70499477       3.65935988       3.62581649       11      -0.35280026      -0.06406840       0.05024236       0.01202246       0.09588300      -0.01239233
H       -3.44700030       1.18636563       3.12624543       12       0.17759995       0.19181929      -0.04741865      -0.00912235      -0.09641420      -0.00989511
H       -6.59610993       1.91601265       7.35793206       13      -0.06659844      -0.18039638      -0.21144164      -0.03391604      -0.09078161       0.00994140
H       -1.70183007       2.02877537       8.86790524       14      -0.29590695       0.31510437      -0.07166042      -0.03144021      -0.09144862      -0.01229298
H       -7.79294969       3.44007720       1.61627226       15      -0.10166361      -0.21365327       0.15571300      -0.01202464      -0.09588468       0.01238987
H       -0.77544238       0.72057867       4.36236141       16      -0.29135246      -0.04383699      -0.13778795      -0.05580228      -0.06497598       0.06553212
H        1.56164860       2.67260202       6.12181608       17       0.04513471      -0.09416448      -0.19034861       0.02151185      -0.08285744      -0.06550507
H       -0.46393564       1.89516633       6.16016720       18      -0.02388752       0.06229365       0.02104621       0.04679117      -0.08891366       0.03981838
H        0.70181139      -0.86845994       4.32401029       19       0.02574107      -0.11427781      -0.05287528      -0.08095965      -0.05914011      -0.03975127
H        6.70471062       1.64590036       0.87972733       20      -0.14286290      -0.07079985      -0.14118650       0.05580522       0.06498086      -0.06553400
H       -5.84598670       2.06035604       9.60445016       21      -0.29753233       0.02254640      -0.04431235      -0.02151409       0.08285328       0.06550357
H        5.84489385      -1.89516633       9.56609904       22      -0.28312851       0.06560536      -0.15494221      -0.04679292       0.08891491      -0.03981569
H       -5.53445954       3.23493897       0.91807845       23      -0.02208037       0.11416853       0.04301970       0.08095655       0.05914016       0.03974668
H        0.25131050       0.51347389       1.94957474       24       0.15959789      -0.21361364       0.07505588      -0.00851059      -0.01871618      -0.03717791
H       -0.54820374      -1.79480395       8.53460275       25      -0.12868866      -0.15316038      -0.08588331      -0.00032970      -0.02044821       0.03709308
H       -2.80766320       2.46899490       5.11315433       26      -0.07305533       0.00146869      -0.17781296      -0.04083823      -0.01125234       0.00405133
H       -6.60619587       3.34910738       5.37102316       27       0.12888264       0.07074453      -0.23064715       0.03167372      -0.02802457      -0.00411292
H       -5.08395866       1.85300514       3.29251401       28       0.22099581       0.30740365       0.21601993       0.00851493       0.01871269       0.03717761
H       -4.83275446       1.79480396       7.19166349       29      -0.04673026      -0.18471461       0.19482948       0.00034744       0.02045789      -0.03709817
H       -0.92836486       4.63044218       0.12893441       30      -0.09883902       0.19431951       0.04569436       0.04083344       0.01124261      -0.00406442
H        2.32185777       1.38385068      10.35524308       31       0.15211596       0.04921952       0.12080102      -0.03167582       0.02802766       0.00411105
C       -0.12835063       1.44534837       3.84841655       32      -0.28778073       0.91754073       0.18270710      -0.01445547       0.09213150      -0.08206746
C        0.20260826      -1.12485611       6.63576095       33       0.00096406       0.97078231      -0.67128192       0.05361638       0.07627341       0.08205837
C       -0.77226604       2.84130358       5.69336968       34      -0.96473690       0.45234422      -0.54337998      -0.06051266       0.10293011       0.03487886
C        1.39483372      -0.15433229       4.79080781       35       0.83737779      -0.34833687      -0.35976593       0.09947440       0.06571090      -0.03489177
C        6.05761888       0.92113066       1.39367220       36       0.73780001       0.71679960       1.01054651       0.01444621      -0.09213822       0.08206806
C       -5.58356646       1.12485611       9.09050530       37       0.36600935      -0.57579551       1.35161317      -0.05360203      -0.07626171      -0.08206126
C       -3.51207206       1.89165448      10.03289656       38      -0.27702103       0.36712178       0.74445208       0.06052563      -0.10293376      -0.03488953
C        4.53443453       2.52081132       0.45128094       39      -0.47025582       0.22782501       0.51146167      -0.09947121      -0.06571919       0.03490401
C       -0.32593927       1.35886302       2.34265801       40      -0.11966996      -0.73251108       0.28611321      -0.02487552      -0.04884191       0.03836673
C        0.34202778      -1.28942579       8.14151949       41       0.57030904      -0.50578053       0.01064034       0.00090485      -0.05509186      -0.03821036
C       -2.26824862       3.05565688       5.86632716       42      -0.48098077       0.96238649       0.55365818       0.02524352      -0.06073752       0.01393191
C        2.83264719      -0.61974062       4.61785033       43      -0.04860277      -0.55844948       0.33742963      -0.04931998      -0.04330871      -0.01374394
C        6.25520752       1.00761601       2.89943074       44      -0.70747446      -0.11378709      -0.42767829       0.02487214       0.04884402      -0.03836688
C       -5.72298598       1.28942580       7.58474676       45       0.19434055       0.24831833       0.14297097      -0.00092383       0.05507594       0.03821357
C       -2.01608948       1.67730118       9.85993908       46       0.09740524      -0.72425149      -0.69205550      -0.02525441       0.06073193      -0.01390001
C        3.09662106       2.98621965       0.62423841       47      -0.12331172      -0.02208015       0.38636924       0.04932753       0.04330578       0.01374306
O       -0.42625656       2.75924355       4.28180099       48       1.20625674       0.48604619      -0.44497158       0.00567006      -0.06416516       0.01081742
O        1.04798334      -0.07585512       6.20237650       49       0.42305791      -1.01659881      -0.20166176      -0.03317424      -0.05508590      -0.01086412
O       -1.17294689      -0.80803189       6.28015861       50      -0.36133290       0.99731317      -0.30860065      -0.00324886      -0.06212924      -0.01994154
O        1.24638404       1.12493657       4.20401888       51      -0.92624698      -0.21254257      -0.34164539      -0.02462067      -0.05716519       0.01989378
O       -3.30977150       4.34019353       0.96028775       52       0.26500009      -0.83301049      -0.49473951      -0.00567093       0.06416596      -0.01082141
O        4.33297486       0.07585512       9.52388974       53      -0.48283211      -0.49689578       1.25894465       0.03316820       0.05508564       0.01086729
O       -4.20801131       0.80803190       9.44610763       54       0.43498781      -0.06064940      -0.51538975       0.00324742       0.06213066       0.01994664
O        4.68288421       1.24154246       1.03806987       55       0.06343698      -0.82659266      -1.04828579       0.02462474       0.05716895      -0.01989807
56
Lattice="10.7619164 0.0 0.0 -9.665296305262016 4.732958053065482 0.0 -0.5483100463354086 -2.3664790220718444 10.484177494289693" Properties=species:S:1:pos:R:3:spacegroup_kinds:I:1:momenta:R:3:forces:R:3 spacegroup="P 1" unit_cell=conventional occupancy="_JSON {\"0\": {\"H\": 1}, \"1\": {\"H\": 1}, \"2\": {\"H\": 1}, \"3\": {\"H\": 1}, \"4\": {\"H\": 1}, \"5\": {\"H\": 1}, \"6\": {\"H\": 1}, \"7\": {\"H\": 1}, \"8\": {\"H\": 1}, \"9\": {\"H\": 1}, \"10\": {\"H\": 1}, \"11\": {\"H\": 1}, \"12\": {\"H\": 1}, \"13\": {\"H\": 1}, \"14\": {\"H\": 1}, \"15\": {\"H\": 1}, \"16\": {\"H\": 1}, \"17\": {\"H\": 1}, \"18\": {\"H\": 1}, \"19\": {\"H\": 1}, \"20\": {\"H\": 1}, \"21\": {\"H\": 1}, \"22\": {\"H\": 1}, \"23\": {\"H\": 1}, \"24\": {\"H\": 1}, \"25\": {\"H\": 1}, \"26\": {\"H\": 1}, \"27\": {\"H\": 1}, \"28\": {\"H\": 1}, \"29\": {\"H\": 1}, \"30\": {\"H\": 1}, \"31\": {\"H\": 1}, \"32\": {\"C\": 1}, \"33\": {\"C\": 1}, \"34\": {\"C\": 1}, \"35\": {\"C\": 1}, \"36\": {\"C\": 1}, \"37\": {\"C\": 1}, \"38\": {\"C\": 1}, \"39\": {\"C\": 1}, \"40\": {\"C\": 1}, \"41\": {\"C\": 1}, \"42\": {\"C\": 1}, \"43\": {\"C\": 1}, \"44\": {\"C\": 1}, \"45\": {\"C\": 1}, \"46\": {\"C\": 1}, \"47\": {\"C\": 1}, \"48\": {\"O\": 1}, \"49\": {\"O\": 1}, \"50\": {\"O\": 1}, \"51\": {\"O\": 1}, \"52\": {\"O\": 1}, \"53\": {\"O\": 1}, \"54\": {\"O\": 1}, \"55\": {\"O\": 1}}" energy=-314.163330078125 free_energy=-314.163330078125 stress="0.0017965161241590977 -0.006295039318501949 0.004064954351633787 -0.006295039318501949 0.0028975005261600018 0.006800166796892881 0.004064954351633787 0.006800166796892881 -0.004473617300391197" pbc="T T T"
H        0.12223869       2.21335579       1.84744824        0      -0.06388237      -0.04108039      -0.23331066      -0.34890717      -0.46717995       0.26391760
H        0.31702075      -0.21474902       8.50409131        1      -0.41596670       0.28241834       0.13418012       0.19316764      -0.82258010      -0.04441816
H        7.16689583      -0.52337016       5.79422143        2      -0.01099332       0.09115193       0.18553097      -0.25331342       0.53084320      -0.08150281
H        3.56769344       0.19128007       4.81695807        3       0.00635043       0.03106397      -0.05661332      -0.45246720      -0.59983099       0.03513694
H        5.89857398       0.12906185       3.45590351        4      -0.13662957       0.06346630       0.07412528      -0.11012691      -0.04154596      -0.10463437
H        5.01440553       0.32414383       7.14335939        5       0.11996956      -0.01313405       0.16304590      -0.17231476      -0.44180465      -0.12289560
H       -1.69404180       0.62953434       9.70230152        6      -0.06773575       0.00953594      -0.07983942      -0.29939726      -0.31745815       0.05525979
H        2.37945908       2.25462945       0.31380993        7      -0.10899696       0.12801554      -0.23887818      -0.36571103      -0.41984653      -0.02494838
H       -1.28062225       1.09681353       2.00394193        8       0.10394075       0.17626284      -0.14567625      -0.56132549      -0.12197520      -0.18949880
H       -8.36548928       3.00985765       8.44664940        9       0.01874383       0.07750815      -0.14054401       0.39231724      -0.31946436      -0.01170228
H       -2.54664926       2.78893572       6.82205308       10       0.03048624       0.25775626      -0.04488858      -0.41237333      -0.20837894       1.19028533
H       -6.74143412       3.80633213       3.57290634       11       0.32050249       0.15943877       0.02898733       0.31104076       0.03236975       0.37734807
H       -3.41360537       1.09458057       3.05616297       12       0.34318412      -0.23802471       0.07743271      -0.50854093       0.08234585       0.33155942
H       -6.59466946       1.88031615       7.31880473       13       0.01536649       0.03548319       0.08656116      -0.08189699      -0.12137403       0.20796452
H       -1.92963184       2.16013650       8.81427829       14       0.12531096      -0.02323639      -0.06973046       0.40313631      -0.12264665      -0.32056567
H       -7.86690879       3.29972355       1.71696127       15      -0.08477311      -0.03159824       0.12293882      -0.01434091      -0.41004360      -0.77136475
H       -0.90235490       0.77646752       4.33988636       16      -0.08686031      -0.05814834       0.28342585       0.40912467       0.11714731       0.19912367
H        1.57326846       2.69585855       6.02312949       17       0.00715133      -0.12380867      -0.16254816      -0.29899037      -0.23122837       0.25480646
H       -0.61632286       1.91476306       6.12879313       18      -0.08876030       0.01924322      -0.05101220       0.36619562      -0.32495496       0.18464866
H        0.76835885      -0.91704691       4.28843425       19      -0.15605137       0.01894762       0.06988651      -0.03237643       0.22900349       0.08527806
H        6.70609330       1.62092023       0.91686457       20       0.01929261      -0.19191440       0.26163550       0.76997554       0.63578367      -0.47934970
H       -5.82009078       2.01052708       9.75507015       21       0.30326576       0.03656596       0.14022319      -0.00922812      -0.03741033      -0.50983775
H        5.81093412      -1.87039267       9.61285219       22       0.20657585       0.20659847      -0.02039181       0.37428129      -0.52969038       0.33497912
H       -5.59543452       3.24736134       1.04015515       23      -0.04224131      -0.11354975       0.21265901       0.13948430      -0.29077259      -0.10894223
H        0.42784597       0.48710596       2.10176740       24       0.30049762      -0.13610970      -0.00468398      -0.59484488       0.09816342      -0.19185051
H       -0.53518864      -1.77813114       8.52127415       25       0.00655530       0.08690820       0.10595502       0.65831572      -0.06782641      -0.13440531
H       -2.96285657       2.59157646       5.13270582       26      -0.25300674       0.03340910       0.06572312       0.52106833       0.35914403       0.31286412
H       -6.55716741       3.24215841       5.23786851       27      -0.16752541      -0.02805307      -0.10766356       0.03742141      -0.88643515       0.79596210
H       -5.03685283       1.93128230       3.36334316       28      -0.15021098       0.12582462      -0.10191919       0.62859279      -0.83863688      -0.54655707
H       -4.85344607       1.77016486       7.27072604       29      -0.06649197       0.16884070       0.01181293       1.25073004       0.88673592      -0.39224565
H       -0.86175587       4.56432677       0.03964656       30       0.17846417      -0.19144263      -0.07943132      -0.39176196      -0.36752346      -0.55813438
H        2.38301374       1.54051129      10.51636409       31      -0.19060826       0.01911243       0.25222993       0.14690992      -0.16933230       0.11265883
C       -0.17581897       1.46226535       3.84974166       32      -0.18515619      -0.57459489      -0.22058245       0.27883360      -0.44003654       0.08530617
C        0.22192600      -1.12504879       6.58997346       33      -0.07512307      -0.46550148       0.08488192      -0.55275762      -0.80494505       0.23250622
C       -0.84336858       2.87265024       5.66245298       34       0.04319837       0.29158538      -0.23378197       1.13017917       0.50399059      -0.24388510
C        1.43229076      -0.18392811       4.79404745       35      -0.39846566      -0.16641823      -0.07506731      -1.39263511       0.15176725      -0.49471068
C        6.06713487       0.93900035       1.43224267       36      -0.39497141      -0.32073260      -0.80955182      -1.35843921      -1.50483751      -0.67591351
C       -5.58329451       1.10380716       9.15771829       37      -0.36193227      -0.01752117       0.07000789      -0.01275839       0.62095022      -0.17375728
C       -3.52181740       1.89477509      10.09402552       38       0.16177565      -0.52863277       0.28467057       0.13258085       0.16549630      -2.07575202
C        4.51640584       2.52102928       0.51005714       39       0.36138344      -0.43527652       0.58505065       0.14679080       0.12095989       0.07939515
C       -0.28405293       1.30051714       2.35611376       40       0.19195186      -0.55821587       0.03644870       1.44870234       0.72397661      -0.52213871
C        0.37449210      -1.27541845       8.11748206       41       0.14753545       0.49373580      -0.46888107      -1.73077488       1.54829955      -0.36517057
C       -2.30636825       3.14844779       5.85186587       42      -0.25949197       1.26103843      -0.54787104      -0.30482465      -0.37169203      -1.63763118
C        2.84200269      -0.65064888       4.64737902       43       0.56034542      -0.10141619      -0.32885447       0.85265946       1.99939334      -1.91113949
C        6.24443652       1.02088158       2.92126915       44       0.40080489      -0.06552248       0.31202182       0.30223867       0.54350740       0.34550664
C       -5.72072981       1.29321541       7.63361805       45      -0.11246973      -0.13664566       1.05760912      -1.14459467      -0.53769785       0.96596211
C       -2.05012740       1.65516312       9.77267023       46      -0.47453656       0.69520775      -0.54057450       0.62453198       1.48065090       1.00712705
C        3.08351631       3.00246315       0.64822750       47      -0.01605087       0.11556259       0.01380966       0.20967522       0.51371270       0.80870676
O       -0.35411231       2.78763683       4.26978768       48       0.22350747       0.25056249       0.25663330      -1.10039890       0.01685533       0.20638122
O        1.06167984      -0.11984225       6.16496940       49      -0.16821844      -0.55392447      -0.45958744       0.11151965       0.85498458       0.49101281
O       -1.21357942      -0.78977939       6.25156088       50      -0.33543362      -0.44277466      -0.25066836       0.73390567      -0.39541751       0.41342074
O        1.20697420       1.13024276       4.19342497       51       0.17004600       0.12777104       0.14454302       0.59316140      -1.04898334       0.70126700
O       -3.31489246       4.29053999       0.93958223       52      -0.41183539      -0.17658534       0.40053867      -0.10513934       0.93135250       2.17608738
O        4.33821577       0.06296653       9.62059752       53       0.35992286       0.45633091       0.21462754       0.43338209       0.52332258      -1.13898194
O       -4.17202258       0.83010248       9.41381798       54       0.02043453       0.24051394      -0.02777883      -0.78840232      -0.43915999       0.27765495
O        4.70668947       1.20000078       0.96656716       55       0.53785612      -0.22599725      -0.23686585      -0.20128003       0.02995300       1.29980707
56
Lattice="10.7619164 0.0 0.0 -9.665296305262016 4.732958053065482 0.0 -0.5483100463354086 -2.3664790220718444 10.484177494289693" Properties=species:S:1:pos:R:3:spacegroup_kinds:I:1:momenta:R:3:forces:R:3 spacegroup="P 1" unit_cell=conventional occupancy="_JSON {\"0\": {\"H\": 1}, \"1\": {\"H\": 1}, \"2\": {\"H\": 1}, \"3\": {\"H\": 1}, \"4\": {\"H\": 1}, \"5\": {\"H\": 1}, \"6\": {\"H\": 1}, \"7\": {\"H\": 1}, \"8\": {\"H\": 1}, \"9\": {\"H\": 1}, \"10\": {\"H\": 1}, \"11\": {\"H\": 1}, \"12\": {\"H\": 1}, \"13\": {\"H\": 1}, \"14\": {\"H\": 1}, \"15\": {\"H\": 1}, \"16\": {\"H\": 1}, \"17\": {\"H\": 1}, \"18\": {\"H\": 1}, \"19\": {\"H\": 1}, \"20\": {\"H\": 1}, \"21\": {\"H\": 1}, \"22\": {\"H\": 1}, \"23\": {\"H\": 1}, \"24\": {\"H\": 1}, \"25\": {\"H\": 1}, \"26\": {\"H\": 1}, \"27\": {\"H\": 1}, \"28\": {\"H\": 1}, \"29\": {\"H\": 1}, \"30\": {\"H\": 1}, \"31\": {\"H\": 1}, \"32\": {\"C\": 1}, \"33\": {\"C\": 1}, \"34\": {\"C\": 1}, \"35\": {\"C\": 1}, \"36\": {\"C\": 1}, \"37\": {\"C\": 1}, \"38\": {\"C\": 1}, \"39\": {\"C\": 1}, \"40\": {\"C\": 1}, \"41\": {\"C\": 1}, \"42\": {\"C\": 1}, \"43\": {\"C\": 1}, \"44\": {\"C\": 1}, \"45\": {\"C\": 1}, \"46\": {\"C\": 1}, \"47\": {\"C\": 1}, \"48\": {\"O\": 1}, \"49\": {\"O\": 1}, \"50\": {\"O\": 1}, \"51\": {\"O\": 1}, \"52\": {\"O\": 1}, \"53\": {\"O\": 1}, \"54\": {\"O\": 1}, \"55\": {\"O\": 1}}" energy=-313.85382080078125 free_energy=-313.85382080078125 stress="0.013761413283646107 -0.004879378248006105 -0.005674284417182207 -0.004879378248006105 0.006163867190480232 0.005476058926433325 -0.005674284417182207 0.005476058926433325 -0.0018128511728718877" pbc="T T T"
H        0.15152029       2.21865820       1.86996602        0       0.18670823      -0.17536418       0.06887275      -0.25462896      -0.83075446       0.05804897
H        0.10920509      -0.19334250       8.62244496        1      -0.00897913       0.26460804      -0.03107007       0.20135981      -1.45994353      -1.01799428
H        7.15516439      -0.39883627       5.76710614        2       0.22383250       0.15937084      -0.34067701       0.18644585       0.19728090      -0.26340353
H        3.55287379       0.14212039       5.10648269        3      -0.16824455      -0.25377471       0.22539369      -0.53552264      -0.32389316      -0.69895399
H        5.71904804       0.28007967       3.48878610        4      -0.14175127       0.06957613       0.07981289      -0.42629278      -0.45673698       0.12704715
H        5.07217450       0.33732696       7.23278699        5      -0.02221053       0.07819953       0.03358490       0.14585084      -0.33883485      -0.34743720
H       -1.86337468       0.61454896       9.70908643        6       0.00210005      -0.06951414       0.02682884       0.35397393       0.27212068       0.03442148
H        2.40409164       2.23500127       0.27412499        7      -0.05904478      -0.08227804      -0.03197385       0.20295453       0.43274027      -0.32657161
H       -1.27779550       1.10993538       2.00836781        8      -0.09536020      -0.13044306       0.02708185      -0.83862376       0.04003607      -0.43664187
H       -8.33962613       3.21420938       8.35225619        9       0.17273698       0.29406257      -0.08361760       0.23368010       0.22765642      -0.09217981
H       -2.54133520       3.01261338       6.85842835       10       0.10491066       0.07367808       0.12018060      -0.11240894      -0.33224282       0.81576532
H       -6.39093378       3.84895160       3.60576968       11       0.14443692       0.00657616      -0.00789923      -0.26307169       0.31059691      -0.29987121
H       -3.37778190       0.94136170       3.24468003       12       0.01522370      -0.07500947       0.19342117      -1.33400345      -0.10755605      -0.76893151
H       -6.68609541       1.78694167       7.51153390       13      -0.08667858      -0.27258687      -0.01170147      -0.20095967      -0.13164586      -0.15521747
H       -1.76453225       2.05976725       8.70170573       14       0.02189855      -0.10309583       0.09738786      -0.31269673       0.19350044       0.31044632
H       -7.95446008       3.02340540       1.79564962       15      -0.04973547      -0.11226862       0.02076915       0.41189495       0.38057792      -1.18562257
H       -0.80018670       0.77039119       4.49092971       16       0.00831304      -0.06072670      -0.00660534       0.00097036       0.17438757      -0.99411571
H        1.44500778       2.50713076       6.17382270       17       0.01225019      -0.28997426      -0.01209809       0.24866341       1.14403498       0.13491298
H       -0.56090751       1.92546789       6.04306251       18       0.00912427       0.02953073      -0.02228974      -0.35387152      -0.16754864       0.13082868
H        0.67939900      -0.89355051       4.27079630       19       0.07644913      -0.05095170      -0.04691377       0.30057693      -0.10529494      -0.07734929
H        6.74714457       1.49845921       0.85340925       20      -0.11245924      -0.08927536      -0.22056992       0.51641029       1.18712282      -0.49471134
H       -5.80988206       2.10952444       9.71365883       21      -0.20491589       0.06817239      -0.10894790       0.02467432      -0.34780389      -0.22419637
H        5.87596104      -1.83571068       9.70363716       22      -0.16165016       0.07076710       0.03590437      -0.15178621      -0.88952625      -0.00086330
H       -5.50015878       3.11440193       1.13784143       23       0.11933203       0.03126437      -0.00442096      -0.11864764       0.35621220      -0.32354718
H        0.36855186       0.33657779       1.99417362       24      -0.04607097      -0.23447387      -0.15432098      -1.04204082       1.71019280       0.43702126
H       -0.32413899      -2.00709543       8.53026263       25       0.20338989      -0.17844346      -0.18322105       0.05246632       0.67889249      -0.27905524
H       -3.08714235       2.74677641       5.19721888       26      -0.01915484       0.07455446      -0.09249897       0.58998179       0.03474056       0.12558103
H       -6.69673469       3.25872593       5.21696368       27      -0.09696505      -0.06688945      -0.04755582       0.17544331      -1.07493043       0.50442314
H       -4.83143356       2.04721334       3.16449864       28       0.33767005       0.12941132       0.00704967       0.39477652      -1.34766793      -0.01897240
H       -4.93754025       1.99042850       7.37634378       29       0.05869121       0.23203864       0.01089262      -0.29873514      -0.47476196      -0.05642399
H       -0.81005372       4.51876376       0.00822852       30      -0.20155762       0.23295186      -0.03457196      -0.26692405      -0.02007205      -0.48483253
H        2.48120430       1.62674260      10.66760476       31       0.30393420      -0.01816153       0.05312263      -0.25146636      -0.60053074       0.38425571
C       -0.17497679       1.41202887       3.81608589       32       0.11041291      -0.26316029      -0.10980189       0.95673066       0.41550267       1.33581233
C        0.16861398      -1.18805866       6.60335742       33      -0.76776878       0.02200082       0.67404007      -0.22194222       0.09041052      -0.69300056
C       -0.81165543       2.89924225       5.59186423       34      -0.05282394       0.32732957      -0.63230734      -1.19237530      -0.34071329       0.60169923
C        1.38527141      -0.18167026       4.74198785       35       0.10269964       0.21879212      -0.68694725       0.81694639      -0.55123860      -0.59415376
C        6.06620575       0.86818201       1.37965230       36       0.53230809      -0.54626155       0.08532769      -0.00823186      -0.53997493       1.85034299
C       -5.59710015       1.15461053       9.17270547       37       0.05871159       1.06856381       0.55336473       0.70454490       0.84736609       1.79725480
C       -3.48648164       1.86752581      10.06803999       38       0.30032599       0.37939417      -0.58623038      -0.95997763       1.52577353      -0.53066164