32
Lattice="6.17176593 0.0 0.0 0.0 8.01859859 0.0 0.0 0.0 13.03281824" Properties=species:S:1:pos:R:3:spacegroup_kinds:I:1:momenta:R:3:forces:R:3 spacegroup="P 1" unit_cell=conventional occupancy="_JSON {\"0\": {\"Li\": 1}, \"1\": {\"Li\": 1}, \"2\": {\"Li\": 1}, \"3\": {\"Li\": 1}, \"4\": {\"Li\": 1}, \"5\": {\"Li\": 1}, \"6\": {\"Li\": 1}, \"7\": {\"Li\": 1}, \"8\": {\"Li\": 1}, \"9\": {\"Li\": 1}, \"10\": {\"Li\": 1}, \"11\": {\"Li\": 1}, \"12\": {\"P\": 1}, \"13\": {\"P\": 1}, \"14\": {\"P\": 1}, \"15\": {\"P\": 1}, \"16\": {\"S\": 1}, \"17\": {\"S\": 1}, \"18\": {\"S\": 1}, \"19\": {\"S\": 1}, \"20\": {\"S\": 1}, \"21\": {\"S\": 1}, \"22\": {\"S\": 1}, \"23\": {\"S\": 1}, \"24\": {\"S\": 1}, \"25\": {\"S\": 1}, \"26\": {\"S\": 1}, \"27\": {\"S\": 1}, \"28\": {\"S\": 1}, \"29\": {\"S\": 1}, \"30\": {\"S\": 1}, \"31\": {\"S\": 1}}" energy=-140.1977996826172 free_energy=-140.1977996826172 stress="-0.00149960583075881 -3.421532892389223e-05 -0.0010741453152149916 -3.421532892389223e-05 -0.00039890274638310075 -0.0005525180022232234 -0.0010741453152149916 -0.0005525180022232234 0.0011546944733709097" pbc="T T T"
Li       2.37930186       0.25035055       4.35321404        0      -0.02798474      -0.38763807       0.06985980       0.00469800       0.03496364       0.03696906
Li       3.73269927       7.69902451       8.71553579        1      -0.11523986      -0.04798543       0.02391990       0.03180130       0.09106310      -0.05450177
Li       5.48890972       7.80105581       2.14015880        2      -0.14318250       0.15779815      -0.28589744      -0.14414458      -0.07594320       0.04233437
Li       0.67859881       0.25443030      10.82257699        3      -0.06357502       0.12988655      -0.03284166       0.06028767      -0.05343311      -0.00786858
Li       3.75082790       4.21008517       8.74046872        4      -0.09294198      -0.17885493       0.23516400       0.00967059       0.13901468      -0.00433897
Li       2.46420798       3.75669561       4.29571970        5       0.22742887       0.00212133       0.04136806      -0.05295401      -0.06057067       0.04794281
Li       0.55106700       3.58283265      10.84633900        6      -0.22385923      -0.26454198       0.14889462       0.28511909       0.14509554      -0.01927904
Li       5.53704565       4.30169660       2.12560180        7       0.01653799       0.35544540       0.31351583      -0.13433278       0.13244951       0.08932097
Li       2.98807807      -0.01693083      -0.05385250        8      -0.45027355      -0.40265165      -0.15091212       0.03284156      -0.12550928       0.03966526
Li      -0.01871747      -0.07119523       6.59349064        9      -0.02918869      -0.24181443       0.04390925      -0.04731687       0.08584629      -0.18771496
Li       3.12588808       3.88694799       0.00604634       10      -0.10147327      -0.34505595       0.13623952       0.05840464       0.08989976       0.00610820
Li       0.00688209       3.97998905       6.51713134       11       0.04647251      -0.09863178       0.21834454      -0.03450333       0.04814367       0.04478643
P        0.91554318       1.99043950       1.18168290       12      -0.11052647      -0.44605821      -0.15642036       0.07027470       0.20632121      -0.13640831
P        5.23550572       6.04544123      11.83852676       13       0.07505655       0.33655897      -0.58563913       0.21589491      -0.21989484       0.27724999
P        4.04442355       6.01627897       5.36238143       14       0.56528135       0.43101424       0.04817216       0.41212124       0.03953976      -0.08910781
P        2.16008071       1.99672557       7.66710260       15       0.37281120       0.02758987      -0.03250713      -0.15604515       0.29050142       0.07471284
S        5.04136660       2.06311496       1.33144476       16      -0.01306839       0.44936006       0.12226194       0.23550300      -0.18400905      -0.06869368
S        1.11298881       5.98683193      11.72448954       17      -0.30948294      -0.46034958       0.00439049      -0.32506204       0.09424499      -0.09877222
S        2.02502306       5.98363257       5.24138399       18       0.69632245      -0.75142844       0.38523770      -0.19928338       0.09113993      -0.05591475
S        4.20959003       2.03301175       7.81485629       19       0.66006309       0.37281188      -0.05234729      -0.34058803      -0.24561833      -0.00160078
S        1.68854691       1.97814287      12.23213591       20      -0.23939256      -0.38079589       0.15044284      -0.16551776      -0.05702899       0.42358500
S        4.48195842       6.06229770       0.76525608       21       0.22161244       1.06103500      -0.34090885      -0.01745194      -0.04429087      -0.18927655
S        4.77283115       6.01661087       7.34625202       22       0.17453760       0.02563029       0.28389311      -0.01056506      -0.08930524      -0.34304959
S        1.37611343       2.05973676       5.72420983       23      -0.45368120       0.67379323      -0.24099502       0.17185003      -0.22942859       0.13076179
S        1.65168315       0.26442376       2.03168574       24      -0.26215497       0.25960461       0.00481179      -0.00345506       0.16963649      -0.15641092
S        4.48657922       7.76497347      10.99649444       25      -0.22508551       0.34186541      -0.13422601       0.02298578      -0.07348271       0.02200974
S        4.78378066       7.75209180       4.48360131       26      -0.27004532       0.25661900      -0.13810551      -0.12350159      -0.30289912       0.31878299
S        1.39935683       0.26003754       8.49472275       27       0.24746202      -0.65401460      -0.30095714       0.17495631       0.14598060       0.00586843
S        4.51654544       4.27701922      11.04344320       28      -0.02928402       0.15441810       0.05170469      -0.28738251       0.20131455       0.00476502
S        1.66698696       3.73238100       2.00263230       29      -0.06304345       0.01656604      -0.14006880       0.12049952      -0.20803554      -0.12936550
S        1.37629537       3.71169376       8.55009457       30      -0.37442970      -0.08650756       0.36916005       0.17744268      -0.28594387      -0.10621880
S        4.81064511       4.28980592       4.50815694       31       0.29432735      -0.30578957      -0.05946394      -0.04224658       0.25023821       0.08365925
