32
Lattice="6.17176593 0.0 0.0 0.0 8.01859859 0.0 0.0 0.0 13.03281824" Properties=species:S:1:pos:R:3:spacegroup_kinds:I:1:momenta:R:3:forces:R:3 spacegroup="P 1" unit_cell=conventional occupancy="_JSON {\"0\": {\"Li\": 1}, \"1\": {\"Li\": 1}, \"2\": {\"Li\": 1}, \"3\": {\"Li\": 1}, \"4\": {\"Li\": 1}, \"5\": {\"Li\": 1}, \"6\": {\"Li\": 1}, \"7\": {\"Li\": 1}, \"8\": {\"Li\": 1}, \"9\": {\"Li\": 1}, \"10\": {\"Li\": 1}, \"11\": {\"Li\": 1}, \"12\": {\"P\": 1}, \"13\": {\"P\": 1}, \"14\": {\"P\": 1}, \"15\": {\"P\": 1}, \"16\": {\"S\": 1}, \"17\": {\"S\": 1}, \"18\": {\"S\": 1}, \"19\": {\"S\": 1}, \"20\": {\"S\": 1}, \"21\": {\"S\": 1}, \"22\": {\"S\": 1}, \"23\": {\"S\": 1}, \"24\": {\"S\": 1}, \"25\": {\"S\": 1}, \"26\": {\"S\": 1}, \"27\": {\"S\": 1}, \"28\": {\"S\": 1}, \"29\": {\"S\": 1}, \"30\": {\"S\": 1}, \"31\": {\"S\": 1}}" energy=-140.31869506835938 free_energy=-140.31869506835938 stress="-0.007170629687607288 1.4837496786768156e-09 1.4468437115056076e-08 1.4837496786768156e-09 -0.008259392343461514 2.9371400867006514e-09 1.4468437115056076e-08 2.9371400867006514e-09 -0.005266309250146151" pbc="T T T"
Li       2.40329652       0.26860172       4.33400832        0       0.00000000       0.00000000       0.00000000      -0.02603579       0.00549088      -0.00432109
Li       3.76846941       7.74999687       8.69880992        1       0.00000000       0.00000000       0.00000000       0.02603649      -0.00549124       0.00432298
Li       5.48917948       7.74999687       2.18240080        2       0.00000000       0.00000000       0.00000000      -0.02603559      -0.00549037       0.00432261
Li       0.68258645       0.26860172      10.85041744        3       0.00000000       0.00000000       0.00000000       0.02603543       0.00549251      -0.00431957
Li       3.76846941       4.27790102       8.69880992        4       0.00000000       0.00000000       0.00000000       0.02603669       0.00549197       0.00432289
Li       2.40329652       3.74069757       4.33400832        5       0.00000000       0.00000000       0.00000000      -0.02603655      -0.00549199      -0.00432182
Li       0.68258645       3.74069757      10.85041744        6       0.00000000       0.00000000       0.00000000       0.02603598      -0.00549184      -0.00431996
Li       5.48917948       4.27790102       2.18240080        7       0.00000000       0.00000000       0.00000000      -0.02603527       0.00549038       0.00432242
Li       3.08588297       0.00000000       0.00000000        8       0.00000000       0.00000000       0.00000000      -0.00000045      -0.00000137      -0.00000021
Li       0.00000000       0.00000000       6.51640912        9       0.00000000       0.00000000       0.00000000       0.00000087      -0.00000003      -0.00000113
Li       3.08588297       4.00929929       0.00000000       10       0.00000000       0.00000000       0.00000000      -0.00000063       0.00000046      -0.00000118
Li       0.00000000       4.00929929       6.51640912       11       0.00000000       0.00000000       0.00000000       0.00000029      -0.00000058      -0.00000101
P        0.94051010       2.00464965       1.16601784       12       0.00000000       0.00000000       0.00000000      -0.02067185      -0.00000169       0.02376050
P        5.23125583       6.01394894      11.86680040       13       0.00000000       0.00000000       0.00000000       0.02066569       0.00000087      -0.02375834
P        4.02639307       6.01394894       5.35039128       14       0.00000000       0.00000000       0.00000000      -0.02066749      -0.00000048      -0.02375670
P        2.14537286       2.00464965       7.68242696       15       0.00000000       0.00000000       0.00000000       0.02066877      -0.00000034       0.02375805
S        5.08970823       2.00464965       1.30575389       16       0.00000000       0.00000000       0.00000000      -0.25450590       0.00000015       0.01679019
S        1.08205770       6.01394894      11.72706435       17       0.00000000       0.00000000       0.00000000       0.25450730       0.00000012      -0.01679243
S        2.00382526       6.01394894       5.21065523       18       0.00000000       0.00000000       0.00000000      -0.25450706      -0.00000039      -0.01679137
S        4.16794067       2.00464965       7.82216301       19       0.00000000       0.00000000       0.00000000       0.25450033       0.00000096       0.01679042
S        1.68132889       2.00464965      12.25955363       20       0.00000000       0.00000000       0.00000000       0.10912226      -0.00000008      -0.16719626
S        4.49043704       6.01394894       0.77326461       21       0.00000000       0.00000000       0.00000000      -0.10912016      -0.00000017       0.16718048
S        4.76721186       6.01394894       7.28967373       22       0.00000000       0.00000000       0.00000000       0.10912097       0.00000001       0.16717921
S        1.40455407       2.00464965       5.74314451       23       0.00000000       0.00000000       0.00000000      -0.10911957       0.00000069      -0.16718116
S        1.67233151       0.29287049       2.00524453       24       0.00000000       0.00000000       0.00000000       0.13957866      -0.21272588       0.08709904
S        4.49943442       7.72572810      11.02757371       25       0.00000000       0.00000000       0.00000000      -0.13957612       0.21272525      -0.08709131
S        4.75821447       7.72572810       4.51116459       26       0.00000000       0.00000000       0.00000000       0.13957550       0.21272531      -0.08709063
S        1.41355146       0.29287049       8.52165365       27       0.00000000       0.00000000       0.00000000      -0.13957627      -0.21272084       0.08709064
S        4.49943442       4.30216979      11.02757371       28       0.00000000       0.00000000       0.00000000      -0.13957694      -0.21272559      -0.08709282
S        1.67233151       3.71642880       2.00524453       29       0.00000000       0.00000000       0.00000000       0.13957903       0.21272692       0.08709864
S        1.41355146       3.71642880       8.52165365       30       0.00000000       0.00000000       0.00000000      -0.13957612       0.21272123       0.08709134
S        4.75821447       4.30216979       4.51116459       31       0.00000000       0.00000000       0.00000000       0.13957730      -0.21272498      -0.08709253
32
Lattice="6.17176593 0.0 0.0 0.0 8.01859859 0.0 0.0 0.0 13.03281824" Properties=species:S:1:pos:R:3:spacegroup_kinds:I:1:momenta:R:3:forces:R:3 spacegroup="P 1" unit_cell=conventional occupancy="_JSON {\"0\": {\"Li\": 1}, \"1\": {\"Li\": 1}, \"2\": {\"Li\": 1}, \"3\": {\"Li\": 1}, \"4\": {\"Li\": 1}, \"5\": {\"Li\": 1}, \"6\": {\"Li\": 1}, \"7\": {\"Li\": 1}, \"8\": {\"Li\": 1}, \"9\": {\"Li\": 1}, \"10\": {\"Li\": 1}, \"11\": {\"Li\": 1}, \"12\": {\"P\": 1}, \"13\": {\"P\": 1}, \"14\": {\"P\": 1}, \"15\": {\"P\": 1}, \"16\": {\"S\": 1}, \"17\": {\"S\": 1}, \"18\": {\"S\": 1}, \"19\": {\"S\": 1}, \"20\": {\"S\": 1}, \"21\": {\"S\": 1}, \"22\": {\"S\": 1}, \"23\": {\"S\": 1}, \"24\": {\"S\": 1}, \"25\": {\"S\": 1}, \"26\": {\"S\": 1}, \"27\": {\"S\": 1}, \"28\": {\"S\": 1}, \"29\": {\"S\": 1}, \"30\": {\"S\": 1}, \"31\": {\"S\": 1}}" energy=-140.3199920654297 free_energy=-140.3199920654297 stress="-0.007074445486068726 -5.5059819715097547e-05 -3.792035840888275e-06 -5.5059819715097547e-05 -0.008089149370789528 5.114011855766876e-06 -3.792035840888275e-06 5.114011855766876e-06 -0.005170246120542288" pbc="T T T"
Li       2.40310808       0.26830846       4.33511383        0      -0.01692145      -0.05781364      -0.02600089      -0.02668047       0.00503342      -0.00774050
Li       3.76817375       7.75205753       8.70011520        1      -0.01949708       0.05708168      -0.03891893       0.02641882      -0.00938994       0.00052306
Li       5.48843874       7.74772138       2.18297561        2      -0.04262653      -0.10935925       0.03553106      -0.02235047       0.00104460       0.00147849
Li       0.68280424       0.26814088      10.85002751        3       0.01548481      -0.05405188      -0.13470542       0.02489361       0.00566215      -0.00521435
Li       3.76826110       4.27919136       8.69603921        4      -0.05614819       0.04687175      -0.08124859       0.02475701       0.00233163       0.01017222
Li       2.40538766       3.74169011       4.33395153        5       0.03537021       0.05093231      -0.02866775      -0.03029886      -0.00673109      -0.00361046
Li       0.68368739       3.73794531      10.85120518        6       0.05084547      -0.09788228       0.05177717       0.02327849      -0.00109848      -0.00701060
Li       5.49068584       4.27628032       2.18237360        7       0.02336241      -0.05764372      -0.04248013      -0.03101090       0.01068002       0.00403913
Li       3.08401793      -0.00083795      -0.00026584        8      -0.09831932       0.02378429      -0.05425356      -0.00020894      -0.00059447       0.00101390
Li      -0.00031391      -0.00132486       6.51558174        9      -0.06410130      -0.03317285      -0.02185125       0.00312885      -0.00002429       0.00485841
Li       3.08779649       4.01098779       0.00162437       10       0.09692760       0.02599375       0.06253885      -0.00065990      -0.00404638      -0.00365765
Li      -0.00072684       4.00767112       6.51803437       11      -0.01781602      -0.04818411       0.02846384      -0.00191561       0.00246390      -0.00109622
P        0.94027274       2.00620677       1.16586433       12      -0.10513119       0.28492651       0.02722091      -0.02217637      -0.03872961       0.03236648
P        5.23189775       6.01400634      11.86677522       13       0.14217374       0.02988200       0.03031681       0.00628340      -0.01030993      -0.03846144
P        4.02718696       6.01473079       5.34953189       14       0.20199643       0.16051875      -0.22514380      -0.03737916      -0.01841314       0.00650370
P        2.14519966       2.00482676       7.68132779       15      -0.06265128       0.03045844      -0.19030072       0.01368807       0.00249468       0.04847093
S        5.08954700       2.00487468       1.30652858       16       0.02872284       0.09435185       0.22724911      -0.25516346       0.00042663       0.01532804
S        1.08301371       6.01319883      11.72651599       17       0.24798920      -0.16222612      -0.18054018       0.24249065       0.00199085      -0.01517589
S        2.00304184       6.01397665       5.21165860       18      -0.18583535      -0.03028294       0.24863128      -0.22870095       0.00035565      -0.02041555
S        4.16717069       2.00447379       7.82180165       19      -0.20202831       0.03708517       0.10713758       0.26577577       0.00264985       0.01571751
S        1.68151006       2.00393584      12.26013826       20       0.12209655      -0.15298020       0.15162462       0.11136861       0.00228862      -0.17048275
S        4.48977425       6.01472714       0.77361686       21      -0.09564216       0.29136101       0.02289993      -0.10214008      -0.00536110       0.15717646
S        4.76684879       6.01387594       7.29140286       22      -0.06929613      -0.09647928       0.33975896       0.10488276       0.00465249       0.13601187
S        1.40549600       2.00467140       5.74320759       23       0.24158831       0.01749276       0.01852444      -0.11659959       0.00175275      -0.18325171
S        1.67128938       0.29261169       2.00600655       24      -0.21226589      -0.16850027       0.18722420       0.13587503      -0.19588254       0.08022400
S        4.49854492       7.72621136      11.02664491       25      -0.14683009       0.10002055      -0.05918279      -0.12766989       0.19571465      -0.07295114
S        4.75889133       7.72577897       4.51097520       26       0.23996218      -0.04844154      -0.06216964       0.13919595       0.21807481      -0.08920912
S        1.41343693       0.29262515       8.52105166       27      -0.12110524      -0.01598663      -0.15543103      -0.13980950      -0.20530427       0.08461110
S        4.49946531       4.30059538      11.02688891       28       0.00018697      -0.30225905      -0.08079300      -0.12830591      -0.18627384      -0.07395073
S        1.67195981       3.71667635       2.00497943       29      -0.02814081       0.12127425       0.01033913       0.14865367       0.22605813       0.09360664
S        1.41362404       3.71727478       8.52150467       30       0.02550778      -0.03357241      -0.10474539      -0.13689765       0.20036596       0.08280656
S        4.75901874       4.30191692       4.51090287       31       0.07214185       0.09680110      -0.06280482       0.13727693      -0.20188177      -0.08268057
32
Lattice="6.17176593 0.0 0.0 0.0 8.01859859 0.0 0.0 0.0 13.03281824" Properties=species:S:1:pos:R:3:spacegroup_kinds:I:1:momenta:R:3:forces:R:3 spacegroup="P 1" unit_cell=conventional occupancy="_JSON {\"0\": {\"Li\": 1}, \"1\": {\"Li\": 1}, \"2\": {\"Li\": 1}, \"3\": {\"Li\": 1}, \"4\": {\"Li\": 1}, \"5\": {\"Li\": 1}, \"6\": {\"Li\": 1}, \"7\": {\"Li\": 1}, \"8\": {\"Li\": 1}, \"9\": {\"Li\": 1}, \"10\": {\"Li\": 1}, \"11\": {\"Li\": 1}, \"12\": {\"P\": 1}, \"13\": {\"P\": 1}, \"14\": {\"P\": 1}, \"15\": {\"P\": 1}, \"16\": {\"S\": 1}, \"17\": {\"S\": 1}, \"18\": {\"S\": 1}, \"19\": {\"S\": 1}, \"20\": {\"S\": 1}, \"21\": {\"S\": 1}, \"22\": {\"S\": 1}, \"23\": {\"S\": 1}, \"24\": {\"S\": 1}, \"25\": {\"S\": 1}, \"26\": {\"S\": 1}, \"27\": {\"S\": 1}, \"28\": {\"S\": 1}, \"29\": {\"S\": 1}, \"30\": {\"S\": 1}, \"31\": {\"S\": 1}}" energy=-140.3210906982422 free_energy=-140.3210906982422 stress="-0.006914639379829168 -0.0001357484725303948 5.390555088524707e-05 -0.0001357484725303948 -0.007799877319484949 -2.4080816729110666e-05 5.390555088524707e-05 -2.4080816729110666e-05 -0.005003124009817839" pbc="T T T"
Li       2.40284786       0.26772846       4.33655605        0      -0.01817119       0.01859349       0.18112105      -0.02959072       0.00488937      -0.01334224
Li       3.76570894       7.75184654       8.69932403        1      -0.08756278      -0.02864219       0.00762296       0.02776603      -0.00954962       0.00187883
Li       5.48474503       7.74510329       2.18320418        2      -0.10700166      -0.07120164      -0.07566076      -0.01075960       0.01005181      -0.00145150
Li       0.68341543       0.26482756      10.84451264        3      -0.01751289      -0.11865291      -0.13384478       0.02317228       0.01211669       0.00215080
Li       3.76481373       4.27932877       8.69319016        4      -0.11195095      -0.02144553      -0.07689631       0.02852378       0.00192385       0.01580955
Li       2.40624033       3.74339667       4.33449336        5       0.00021517       0.06627550       0.02720176      -0.03148983      -0.00717363      -0.00413492
Li       0.68635965       3.73354150      10.85354155        6       0.02849110      -0.13294390       0.06139824       0.01683920       0.00745476      -0.01349422
Li       5.49137502       4.27487007       2.17912491        7      -0.03905959      -0.02869696      -0.14832303      -0.03352870       0.01976077       0.01089858
Li       3.08142508       0.00321674      -0.00353648        8      -0.04934196       0.15074173      -0.14839322      -0.00069535      -0.00741468       0.00910727
Li      -0.00087996      -0.00438750       6.51492134        9      -0.05558732      -0.15089743      -0.01460253       0.00751079      -0.00031005       0.01136521
Li       3.09330600       4.01192937       0.00443203       10       0.11398483       0.02471227       0.08373064      -0.00439961      -0.00882238      -0.00667998
Li       0.00032220       4.00485105       6.51863636       11       0.06484231      -0.12871414       0.02704850      -0.00939891       0.01006143      -0.00123846
P        0.93893122       2.00886994       1.16540714       12      -0.23486229       0.31387453      -0.06050053       0.02502386      -0.11702152       0.06950930
P        5.23360762       6.01388518      11.86733244       13       0.22553770      -0.10821729       0.11806298      -0.01795366      -0.01646017      -0.07164021
P        4.02920677       6.01645770       5.34795112       14       0.38158040       0.25199297      -0.21557867      -0.07308887      -0.06332241       0.07478795
P        2.14467918       2.00504829       7.67858098       15       0.01106963       0.05347204      -0.42338102       0.01301883      -0.00301488       0.09670746
S        5.08953784       2.00594978       1.30814913       16      -0.09106572       0.24864600       0.22345440      -0.26968262       0.00077935       0.01096167
S        1.08548969       6.01257810      11.72569462       17       0.42458158      -0.07268979      -0.05658867       0.21549469       0.00043563      -0.01356300
S        2.00267241       6.01366316       5.21245496       18      -0.06788861       0.01443461       0.03478149      -0.19555244       0.00575352      -0.02199510
S        4.16550095       2.00418434       7.82296487       19      -0.10453743      -0.06720481       0.15047361       0.28274944       0.00156991       0.00993399
S        1.68315782       2.00340319      12.26089981       20       0.29008179      -0.01688631       0.04132619       0.10379441       0.00178206      -0.16830179
S        4.48898795       6.01713111       0.77367062       21      -0.17536659       0.25398923      -0.04498682      -0.09500933      -0.01760184       0.14826570
S        4.76655501       6.01342838       7.29537019       22       0.06577579      -0.23058686       0.60738221       0.09538147       0.00776621       0.07313506
S        1.40688594       2.00565845       5.74325385       23       0.22380106       0.28216632      -0.01767943      -0.12986323      -0.00317872      -0.22058359
S        1.66990753       0.28933278       2.00791160       24      -0.22479453      -0.48519849       0.19459822       0.10900703      -0.12559769       0.04481220
S        4.49704155       7.72745875      11.02634375       25      -0.22196697       0.18031124       0.00760734      -0.10401985       0.16278964      -0.06094652
S        4.75973654       7.72513607       4.51097495       26       0.13804584      -0.11628921       0.03867799       0.14923240       0.24701265      -0.09885379
S        1.41204999       0.29277750       8.51935164       27      -0.27127605      -0.02214657      -0.12342759      -0.13796522      -0.20148703       0.07522548
S        4.49912966       4.29820996      11.02586372       28      -0.03387600      -0.24185756      -0.29405221      -0.10270147      -0.14296591      -0.05069371
S        1.67212357       3.71789865       2.00563560       29       0.05689769       0.37214443       0.15725000       0.14903432       0.22397606       0.08891119
S        1.41286305       3.71647272       8.52074284       30      -0.17779987      -0.13383299       0.02946496      -0.14250192       0.20093773       0.08570091
S        4.75942934       4.30225855       4.51032995       31       0.06471752      -0.05524980      -0.15728699       0.14165285      -0.19514084      -0.08224238
32
Lattice="6.17176593 0.0 0.0 0.0 8.01859859 0.0 0.0 0.0 13.03281824" Properties=species:S:1:pos:R:3:spacegroup_kinds:I:1:momenta:R:3:forces:R:3 spacegroup="P 1" unit_cell=conventional occupancy="_JSON {\"0\": {\"Li\": 1}, \"1\": {\"Li\": 1}, \"2\": {\"Li\": 1}, \"3\": {\"Li\": 1}, \"4\": {\"Li\": 1}, \"5\": {\"Li\": 1}, \"6\": {\"Li\": 1}, \"7\": {\"Li\": 1}, \"8\": {\"Li\": 1}, \"9\": {\"Li\": 1}, \"10\": {\"Li\": 1}, \"11\": {\"Li\": 1}, \"12\": {\"P\": 1}, \"13\": {\"P\": 1}, \"14\": {\"P\": 1}, \"15\": {\"P\": 1}, \"16\": {\"S\": 1}, \"17\": {\"S\": 1}, \"18\": {\"S\": 1}, \"19\": {\"S\": 1}, \"20\": {\"S\": 1}, \"21\": {\"S\": 1}, \"22\": {\"S\": 1}, \"23\": {\"S\": 1}, \"24\": {\"S\": 1}, \"25\": {\"S\": 1}, \"26\": {\"S\": 1}, \"27\": {\"S\": 1}, \"28\": {\"S\": 1}, \"29\": {\"S\": 1}, \"30\": {\"S\": 1}, \"31\": {\"S\": 1}}" energy=-140.32237243652344 free_energy=-140.32237243652344 stress="-0.006423804443329573 -0.00023867872369010001 0.00010957467748085037 -0.00023867872369010001 -0.007356978487223387 -8.066274313023314e-05 0.00010957467748085037 -8.066274313023314e-05 -0.004681644961237907" pbc="T T T"
Li       2.39967369       0.27037122       4.34223889        0      -0.14052839       0.09134466       0.15449322      -0.02527648      -0.00668957      -0.02677764
Li       3.76333269       7.75098695       8.69865663        1      -0.07437957      -0.07795773      -0.02555903       0.02759993      -0.01004312       0.00277545
Li       5.47984053       7.74398136       2.17960995        2      -0.20557368      -0.00212023      -0.13412103       0.00183918       0.01646252       0.00166467
Li       0.68431625       0.26191153      10.83787623        3       0.02945222      -0.03219795      -0.26678561       0.02020299       0.01681341       0.01407862
Li       3.75895757       4.27639478       8.69146511        4      -0.17701116      -0.06576947      -0.03390857       0.03718018       0.00917578       0.01925291
Li       2.40573150       3.74519697       4.33494246        5       0.03481962       0.04259000       0.04391775      -0.02751001      -0.00236485      -0.00467784
Li       0.68667203       3.72663686      10.85459921        6      -0.00192605      -0.27372910      -0.00347183       0.01358970       0.01889213      -0.01509215
Li       5.49026345       4.27175445       2.17276016        7       0.01553529      -0.15432469      -0.21633120      -0.03336722       0.03502075       0.02487328
Li       3.07914349       0.00762878      -0.00717146        8      -0.11168584       0.11410361      -0.11800163      -0.00310466      -0.01334999       0.01437823
Li      -0.00565193      -0.00845231       6.51502680        9      -0.15562931      -0.15389199       0.06280929       0.01867332       0.00295486       0.02158548
Li       3.09760543       4.01278059       0.00648179       10       0.12570164       0.05969102       0.00343719      -0.00975576      -0.01333922      -0.01309204
Li       0.00101850       3.99940274       6.51791019       11      -0.01264836      -0.12961133      -0.09576304      -0.01684344       0.02069684       0.00264335
P        0.93724935       2.01155765       1.16633086       12      -0.23512376       0.40059797       0.25329443       0.09160730      -0.18967703       0.08310847
P        5.23554449       6.01352513      11.86856264       13       0.20492581      -0.06547544       0.14571973      -0.03195465      -0.01160165      -0.12078322
P        4.03292159       6.01830791       5.34680086       14       0.35465837       0.23961241      -0.05899775      -0.14630258      -0.12257983       0.13954030
P        2.14429466       2.00557254       7.67575626       15       0.02805082       0.12735277      -0.34347508       0.01201280      -0.01375219       0.15323521
S        5.08889734       2.00871614       1.30947288       16      -0.28887024       0.42781060       0.16068542      -0.27851799      -0.00676857       0.00700653
S        1.08897997       6.01171054      11.72433743       17       0.51294994      -0.19177284      -0.35505819       0.17113310      -0.00250538      -0.00871134
S        2.00150948       6.01358470       5.21343327       18      -0.11594507      -0.04675477       0.17761540      -0.12464727       0.01208392      -0.02108511
S        4.16529393       2.00431923       7.82420376       19       0.02257816       0.00628272       0.26357902       0.27565962      -0.00437949       0.00120210
S        1.68555055       2.00282502      12.26131986       20       0.32591281      -0.12404306       0.06974065       0.08587611       0.00196187      -0.14293149
S        4.48678767       6.01938226       0.77363802       21      -0.26319590       0.33760842      -0.06117461      -0.08446276      -0.02900450       0.13883194
S        4.76691333       6.01129369       7.30046519       22       0.00526259      -0.31663967       0.68901112       0.08202549       0.01361569       0.00518011
S        1.40769099       2.00770657       5.74262284       23      -0.03121118       0.33864551      -0.06321009      -0.14016429      -0.00909270      -0.23984410
S        1.66883172       0.28467001       2.00918647       24      -0.05915225      -0.76367646       0.09909544       0.07427605      -0.04144020       0.01484036
S        4.49545944       7.72880307      11.02534386       25      -0.04682840       0.22969374      -0.33212623      -0.07430264       0.12100867      -0.03974161
S        4.76140358       7.72385079       4.51018765       26       0.40627586      -0.13119880      -0.16717263       0.15565749       0.28158826      -0.10965709
S        1.40996631       0.29287535       8.51868457       27      -0.31119815      -0.02656568      -0.06839671      -0.12528421      -0.18273358       0.04824453
S        4.49920030       4.29632906      11.02408885       28       0.12333737      -0.22657794      -0.10691174      -0.08086676      -0.10235372      -0.02230567
S        1.67263866       3.72062668       2.00622085       29       0.04822149       0.39050178       0.01164726       0.13985877       0.20462860       0.08066974
S        1.41119883       3.71566062       8.52153834       30      -0.27781378      -0.07980734       0.26998278      -0.14247975       0.18859312       0.07442199
S        4.76131326       4.30221704       4.50984368       31       0.27103909       0.05627930       0.04543623       0.13764827      -0.18182075      -0.08283404
32
Lattice="6.17176593 0.0 0.0 0.0 8.01859859 0.0 0.0 0.0 13.03281824" Properties=species:S:1:pos:R:3:spacegroup_kinds:I:1:momenta:R:3:forces:R:3 spacegroup="P 1" unit_cell=conventional occupancy="_JSON {\"0\": {\"Li\": 1}, \"1\": {\"Li\": 1}, \"2\": {\"Li\": 1}, \"3\": {\"Li\": 1}, \"4\": {\"Li\": 1}, \"5\": {\"Li\": 1}, \"6\": {\"Li\": 1}, \"7\": {\"Li\": 1}, \"8\": {\"Li\": 1}, \"9\": {\"Li\": 1}, \"10\": {\"Li\": 1}, \"11\": {\"Li\": 1}, \"12\": {\"P\": 1}, \"13\": {\"P\": 1}, \"14\": {\"P\": 1}, \"15\": {\"P\": 1}, \"16\": {\"S\": 1}, \"17\": {\"S\": 1}, \"18\": {\"S\": 1}, \"19\": {\"S\": 1}, \"20\": {\"S\": 1}, \"21\": {\"S\": 1}, \"22\": {\"S\": 1}, \"23\": {\"S\": 1}, \"24\": {\"S\": 1}, \"25\": {\"S\": 1}, \"26\": {\"S\": 1}, \"27\": {\"S\": 1}, \"28\": {\"S\": 1}, \"29\": {\"S\": 1}, \"30\": {\"S\": 1}, \"31\": {\"S\": 1}}" energy=-140.3223876953125 free_energy=-140.3223876953125 stress="-0.005756371654570103 -0.0003073798434343189 0.00012456063996069133 -0.0003073798434343189 -0.006740391720086336 -0.00030895479721948504 0.00012456063996069133 -0.00030895479721948504 -0.004285424016416073" pbc="T T T"
Li       2.39287553       0.27151168       4.34964514        0      -0.15019619       0.01582843       0.22705939      -0.01293600      -0.01798914      -0.04227695
Li       3.76124147       7.74650914       8.69956185        1      -0.06304871      -0.20302446       0.00731108       0.02158098      -0.00174100      -0.00026345
Li       5.47489056       7.74505365       2.17584895        2      -0.13581272       0.04026115      -0.07716231       0.01138491       0.01951709       0.00381080
Li       0.68626390       0.26082426      10.82753455        3       0.08140371      -0.05809625      -0.28466069       0.01686115       0.01371956       0.03441995
Li       3.75389735       4.27273497       8.69195132        4      -0.10535778      -0.12176495       0.02291950       0.04451568       0.01715172       0.02332925
Li       2.40715049       3.74749622       4.33687984        5      -0.05293204       0.02762498       0.04158677      -0.02696681      -0.00177655      -0.00958900
Li       0.68686346       3.71714504      10.85461622        6       0.00540772      -0.26379275       0.01601245       0.01088223       0.03503611      -0.01212157
Li       5.49258526       4.26704696       2.16436565        7       0.08843644      -0.14851347      -0.26242202      -0.04312998       0.05716610       0.04251367
Li       3.07622797       0.01223479      -0.00963676        8      -0.10501881       0.16355030      -0.07290461      -0.00264448      -0.02104818       0.01224149
Li      -0.01171840      -0.01403982       6.51781396        9      -0.18813439      -0.17381914       0.05910387       0.02753328       0.00931273       0.02664250
Li       3.10170672       4.01190138       0.00665227       10       0.13661801      -0.12327250      -0.01017121      -0.01577420      -0.01676938      -0.01716677
Li       0.00014514       3.99573936       6.51614605       11      -0.01024246      -0.09653883       0.02015742      -0.01951687       0.02679667       0.01162012
P        0.93563281       2.01457846       1.16836508       12      -0.11109409       0.34959276       0.23177630       0.13703564      -0.27216887       0.05673546
P        5.23687152       6.01328627      11.86939808       13       0.12322761      -0.01621936      -0.06823307      -0.01171152       0.01202685      -0.16965951
P        4.03591185       6.01967024       5.34690880       14       0.39431867       0.08372719       0.04241368      -0.18830650      -0.13999808       0.17184260
P        2.14385712       2.00715997       7.67259238       15      -0.06618074       0.22938364      -0.50960086       0.01073615      -0.04812519       0.22582197
S        5.08639393       2.01261718       1.30949848       16      -0.48618749       0.54213373      -0.04002732      -0.25757459      -0.01868561       0.00513643
S        1.09357620       6.00970102      11.72264259       17       0.65762624      -0.20818526      -0.09638618       0.10115891       0.00017224      -0.00524644
S        2.00090767       6.01251581       5.21513575       18      -0.08274703      -0.17985270       0.22043691      -0.07302437       0.02018107      -0.01884864