32
Lattice="6.17176593 0.0 0.0 0.0 8.01859859 0.0 0.0 0.0 13.03281824" Properties=species:S:1:pos:R:3:spacegroup_kinds:I:1:forces:R:3 spacegroup="P 1" unit_cell=conventional occupancy="_JSON {\"0\": {\"Li\": 1}, \"1\": {\"Li\": 1}, \"2\": {\"Li\": 1}, \"3\": {\"Li\": 1}, \"4\": {\"Li\": 1}, \"5\": {\"Li\": 1}, \"6\": {\"Li\": 1}, \"7\": {\"Li\": 1}, \"8\": {\"Li\": 1}, \"9\": {\"Li\": 1}, \"10\": {\"Li\": 1}, \"11\": {\"Li\": 1}, \"12\": {\"P\": 1}, \"13\": {\"P\": 1}, \"14\": {\"P\": 1}, \"15\": {\"P\": 1}, \"16\": {\"S\": 1}, \"17\": {\"S\": 1}, \"18\": {\"S\": 1}, \"19\": {\"S\": 1}, \"20\": {\"S\": 1}, \"21\": {\"S\": 1}, \"22\": {\"S\": 1}, \"23\": {\"S\": 1}, \"24\": {\"S\": 1}, \"25\": {\"S\": 1}, \"26\": {\"S\": 1}, \"27\": {\"S\": 1}, \"28\": {\"S\": 1}, \"29\": {\"S\": 1}, \"30\": {\"S\": 1}, \"31\": {\"S\": 1}}" energy=-140.31869506835938 free_energy=-140.31869506835938 stress="-0.007170629687607288 1.4837496786768156e-09 1.4468437115056076e-08 1.4837496786768156e-09 -0.008259392343461514 2.9371400867006514e-09 1.4468437115056076e-08 2.9371400867006514e-09 -0.005266309250146151" pbc="T T T"
Li       2.40329652       0.26860172       4.33400832        0      -0.02603579       0.00549088      -0.00432109
Li       3.76846941       7.74999687       8.69880992        1       0.02603649      -0.00549124       0.00432298
Li       5.48917948       7.74999687       2.18240080        2      -0.02603559      -0.00549037       0.00432261
Li       0.68258645       0.26860172      10.85041744        3       0.02603543       0.00549251      -0.00431957
Li       3.76846941       4.27790102       8.69880992        4       0.02603669       0.00549197       0.00432289
Li       2.40329652       3.74069757       4.33400832        5      -0.02603655      -0.00549199      -0.00432182
Li       0.68258645       3.74069757      10.85041744        6       0.02603598      -0.00549184      -0.00431996
Li       5.48917948       4.27790102       2.18240080        7      -0.02603527       0.00549038       0.00432242
Li       3.08588297       0.00000000       0.00000000        8      -0.00000045      -0.00000137      -0.00000021
Li       0.00000000       0.00000000       6.51640912        9       0.00000087      -0.00000003      -0.00000113
Li       3.08588297       4.00929929       0.00000000       10      -0.00000063       0.00000046      -0.00000118
Li       0.00000000       4.00929929       6.51640912       11       0.00000029      -0.00000058      -0.00000101
P        0.94051010       2.00464965       1.16601784       12      -0.02067185      -0.00000169       0.02376050
P        5.23125583       6.01394894      11.86680040       13       0.02066569       0.00000087      -0.02375834
P        4.02639307       6.01394894       5.35039128       14      -0.02066749      -0.00000048      -0.02375670
P        2.14537286       2.00464965       7.68242696       15       0.02066877      -0.00000034       0.02375805
S        5.08970823       2.00464965       1.30575389       16      -0.25450590       0.00000015       0.01679019
S        1.08205770       6.01394894      11.72706435       17       0.25450730       0.00000012      -0.01679243
S        2.00382526       6.01394894       5.21065523       18      -0.25450706      -0.00000039      -0.01679137
S        4.16794067       2.00464965       7.82216301       19       0.25450033       0.00000096       0.01679042
S        1.68132889       2.00464965      12.25955363       20       0.10912226      -0.00000008      -0.16719626
S        4.49043704       6.01394894       0.77326461       21      -0.10912016      -0.00000017       0.16718048
S        4.76721186       6.01394894       7.28967373       22       0.10912097       0.00000001       0.16717921
S        1.40455407       2.00464965       5.74314451       23      -0.10911957       0.00000069      -0.16718116
S        1.67233151       0.29287049       2.00524453       24       0.13957866      -0.21272588       0.08709904
S        4.49943442       7.72572810      11.02757371       25      -0.13957612       0.21272525      -0.08709131
S        4.75821447       7.72572810       4.51116459       26       0.13957550       0.21272531      -0.08709063
S        1.41355146       0.29287049       8.52165365       27      -0.13957627      -0.21272084       0.08709064
S        4.49943442       4.30216979      11.02757371       28      -0.13957694      -0.21272559      -0.08709282
S        1.67233151       3.71642880       2.00524453       29       0.13957903       0.21272692       0.08709864
S        1.41355146       3.71642880       8.52165365       30      -0.13957612       0.21272123       0.08709134
S        4.75821447       4.30216979       4.51116459       31       0.13957730      -0.21272498      -0.08709253
