4
Lattice="3.128588 0.0 0.0 -1.5642939988088433 2.709436998432005 0.0 0.0 0.0 5.016955" Properties=species:S:1:pos:R:3:spacegroup_kinds:I:1:momenta:R:3:forces:R:3 spacegroup="P 1" unit_cell=conventional occupancy="_JSON {\"0\": {\"Al\": 1}, \"1\": {\"Al\": 1}, \"2\": {\"N\": 1}, \"3\": {\"N\": 1}}" energy=-29.623743057250977 free_energy=-29.623743057250977 stress="0.004300092346966267 -0.008672652766108513 0.002881931606680155 -0.008672652766108513 -0.0069438498467206955 -0.004434592556208372 0.002881931606680155 -0.004434592556208372 -0.014839217998087406" pbc="T T T"
Al       1.54321207       0.89379622       2.53645984        0      -0.00705446      -0.41529118       0.79444885      -0.25250137       0.39302969      -0.87834454
Al       0.03580899       1.79893952       4.98957807        1       0.09337894      -0.29525144      -0.61191864      -0.16601178       0.14058390       0.62745285
N        1.59619752       0.90645096       4.40111846        2      -0.02189777       1.09350669       0.27120889      -0.08899648      -0.09594018       0.34911028
N       -0.05911255       1.83464206       1.91219260        3      -0.06442670      -0.38296407      -0.45373919       0.50750971      -0.43767357      -0.09821844
