4
Lattice="3.128588 0.0 0.0 -1.5642939988088433 2.709436998432005 0.0 0.0 0.0 5.016955" Properties=species:S:1:pos:R:3:spacegroup_kinds:I:1:momenta:R:3:forces:R:3 spacegroup="P 1" unit_cell=conventional occupancy="_JSON {\"0\": {\"Al\": 1}, \"1\": {\"Al\": 1}, \"2\": {\"N\": 1}, \"3\": {\"N\": 1}}" energy=-29.673717498779297 free_energy=-29.673717498779297 stress="-0.0022254977375268936 -1.328143298451323e-06 -2.407177746022171e-08 -1.328143298451323e-06 -0.0022273443173617125 -4.5174221696697714e-08 -2.407177746022171e-08 -4.5174221696697714e-08 -0.005453724414110184" pbc="T T T"
Al       1.56429556       0.90314476       2.50490041        0       0.68448204       0.53670047       0.91071479      -0.00003575       0.00002081       0.00553251
Al      -0.00000156       1.80629224       5.01337791        1       0.31075784       0.39520501      -1.87833745       0.00003443      -0.00001882       0.00552326
N        1.56429556       0.90314476       4.41849749        2      -0.23293981      -0.79739853      -0.40745139      -0.00003588       0.00001941      -0.00552994
N       -0.00000156       1.80629224       1.91001999        3      -0.76230006      -0.13450696       1.37507406       0.00003714      -0.00002146      -0.00552577
4
Lattice="3.128588 0.0 0.0 -1.5642939988088433 2.709436998432005 0.0 0.0 0.0 5.016955" Properties=species:S:1:pos:R:3:spacegroup_kinds:I:1:momenta:R:3:forces:R:3 spacegroup="P 1" unit_cell=conventional occupancy="_JSON {\"0\": {\"Al\": 1}, \"1\": {\"Al\": 1}, \"2\": {\"N\": 1}, \"3\": {\"N\": 1}}" energy=-29.43359375 free_energy=-29.43359375 stress="-0.01377362385392189 -0.016446439549326897 0.012948796153068542 -0.016446439549326897 -0.023968849331140518 0.009969738312065601 0.012948796153068542 0.009969738312065601 -0.01205950416624546" pbc="T T T"
Al       1.60246141       0.92231284       2.54150848        0       0.57498202      -0.13491988       1.02882481      -1.31301367      -0.49033403      -0.87831461
Al       0.00328789       1.81111139       4.94718774        1      -0.44725791       0.00118055      -1.07867334      -0.30154121      -0.59423327       1.18011940
N        1.53678587       0.85870780       4.38099595        2       0.14052016      -0.46066729       0.20203874       0.28490713       0.67984581       1.25553560
N       -0.05228245       1.80432671       2.00436659        3      -0.26824430       0.59440662      -0.15219028       1.32964790       0.40472147      -1.55734038
4
Lattice="3.128588 0.0 0.0 -1.5642939988088433 2.709436998432005 0.0 0.0 0.0 5.016955" Properties=species:S:1:pos:R:3:spacegroup_kinds:I:1:momenta:R:3:forces:R:3 spacegroup="P 1" unit_cell=conventional occupancy="_JSON {\"0\": {\"Al\": 1}, \"1\": {\"Al\": 1}, \"2\": {\"N\": 1}, \"3\": {\"N\": 1}}" energy=-29.5672550201416 free_energy=-29.5672550201416 stress="0.012915672734379768 0.001702616922557354 0.0035793548449873924 0.001702616922557354 -0.025857053697109222 -0.005369159393012524 0.0035793548449873924 -0.005369159393012524 -0.011435293592512608" pbc="T T T"
Al       1.59598185       0.90138485       2.55101265        0      -0.85003991      -0.64755170      -0.41676301      -0.33522642       0.74370325      -1.26921296
Al      -0.01311799       1.79082858       4.96769657        1      -0.24557041      -0.74327799       1.65595795      -0.18280300      -0.17026776       1.21499705
N        1.52960406       0.86779352       4.41996341        2       0.16413081       0.60763584       0.63654565       0.31887707       0.39321384      -0.09056892
N       -0.00060093       1.87475190       1.90756520        3       0.93147951       0.78319386      -1.87574063       0.19915241      -0.96664929       0.14478490
4
Lattice="3.128588 0.0 0.0 -1.5642939988088433 2.709436998432005 0.0 0.0 0.0 5.016955" Properties=species:S:1:pos:R:3:spacegroup_kinds:I:1:momenta:R:3:forces:R:3 spacegroup="P 1" unit_cell=conventional occupancy="_JSON {\"0\": {\"Al\": 1}, \"1\": {\"Al\": 1}, \"2\": {\"N\": 1}, \"3\": {\"N\": 1}}" energy=-29.406274795532227 free_energy=-29.406274795532227 stress="0.01068881805986166 0.01649829000234604 -0.008164044469594955 0.01649829000234604 -0.0094232689589262 -0.015553955920040607 -0.008164044469594955 -0.015553955920040607 -0.061253972351551056" pbc="T T T"
Al       1.53423928       0.87298461       2.51007452        0      -1.60925358       0.09619215      -1.03262308       0.74608982       1.00298452       0.03482365
Al      -0.01349004       1.78470220       5.05709164        1       0.21561197      -0.04339788       1.72443265       0.02271199       0.40732893      -1.66436887
N        1.55208974       0.92225133       4.42203508        2       0.38659416       0.63935787      -0.93002910       0.04495862      -0.39009625      -0.56986111
N        0.09667399       1.88681818       1.81230438        3       1.00704747      -0.69215214       0.23821948      -0.81376034      -1.02021694       2.19940591
4
Lattice="3.128588 0.0 0.0 -1.5642939988088433 2.709436998432005 0.0 0.0 0.0 5.016955" Properties=species:S:1:pos:R:3:spacegroup_kinds:I:1:momenta:R:3:forces:R:3 spacegroup="P 1" unit_cell=conventional occupancy="_JSON {\"0\": {\"Al\": 1}, \"1\": {\"Al\": 1}, \"2\": {\"N\": 1}, \"3\": {\"N\": 1}}" energy=-29.201902389526367 free_energy=-29.201902389526367 stress="-0.026440996676683426 0.03815551474690437 -0.03138263151049614 0.03815551474690437 -0.0048775277100503445 0.0015437641413882375 -0.03138263151049614 0.0015437641413882375 -0.051819998770952225" pbc="T T T"
Al       1.49382403       0.87740193       2.48150488        0      -0.08661631      -0.02748782       0.25595515       2.48428321      -0.46186486       1.22612023
Al      -0.02076739       1.79337851       5.08843295        1       0.00716704       0.60209088      -1.27068233       0.64723134       0.57433355      -2.36004210
N        1.60157224       0.96971683       4.33361320        2       0.49437302       0.53650994      -0.17473373      -0.53882498      -0.70145297       1.74608994
N        0.13924906       1.81421454       1.89535166        3      -0.41492366      -1.11111300       1.18946088      -2.59268951       0.58898407      -0.61216795
4
Lattice="3.128588 0.0 0.0 -1.5642939988088433 2.709436998432005 0.0 0.0 0.0 5.016955" Properties=species:S:1:pos:R:3:spacegroup_kinds:I:1:momenta:R:3:forces:R:3 spacegroup="P 1" unit_cell=conventional occupancy="_JSON {\"0\": {\"Al\": 1}, \"1\": {\"Al\": 1}, \"2\": {\"N\": 1}, \"3\": {\"N\": 1}}" energy=-29.574626922607422 free_energy=-29.574626922607422 stress="-0.023618007078766823 -0.014321253634989262 -0.011127973906695843 -0.014321253634989262 0.015029964968562126 -0.00285461382009089 -0.011127973906695843 -0.00285461382009089 -0.014440392144024372" pbc="T T T"
Al       1.53421964       0.88369270       2.53780580        0       1.55944036       0.36820845       1.55971055       0.29264292      -0.24000408      -0.91367757
Al      -0.00048009       1.82107763       4.98837342        1       1.01688589       0.86374291      -2.47525518       0.94369531       0.52251625       0.78486520
N        1.63583968       0.96584647       4.40663188        2      -0.31021926      -0.52489301       1.27117406      -1.15103769      -0.78907275       0.05687798
N       -0.01177522       1.75252284       1.90648729        3      -2.26610695      -0.70705836      -0.35562942      -0.08530053       0.50656039       0.07193413
4
Lattice="3.128588 0.0 0.0 -1.5642939988088433 2.709436998432005 0.0 0.0 0.0 5.016955" Properties=species:S:1:pos:R:3:spacegroup_kinds:I:1:momenta:R:3:forces:R:3 spacegroup="P 1" unit_cell=conventional occupancy="_JSON {\"0\": {\"Al\": 1}, \"1\": {\"Al\": 1}, \"2\": {\"N\": 1}, \"3\": {\"N\": 1}}" energy=-29.372074127197266 free_energy=-29.372074127197266 stress="-0.005629639606922865 -0.018719490617513657 0.015849478542804718 -0.018719490617513657 -0.03227302059531212 0.017212223261594772 0.015849478542804718 0.017212223261594772 -0.007298171985894442" pbc="T T T"
Al       1.57072836       0.88046442       2.56331975        0      -0.00039253      -0.37629501      -0.57844032      -1.34386516      -0.44065815      -1.50707793
Al       0.05055070       1.86456079       4.94968567        1       0.52727034       0.77034162       1.04960174      -0.49128991      -1.36433625       1.82584882
N        1.58204800       0.88176659       4.44992394        2      -0.27832259      -1.02263372      -0.55459332       0.15003704       1.16376019      -0.85894960
N       -0.12661084       1.75915459       1.88869867        3      -0.24855516       0.62858710       0.08343185       1.68511808       0.64123428       0.54017854
4
Lattice="3.128588 0.0 0.0 -1.5642939988088433 2.709436998432005 0.0 0.0 0.0 5.016955" Properties=species:S:1:pos:R:3:spacegroup_kinds:I:1:momenta:R:3:forces:R:3 spacegroup="P 1" unit_cell=conventional occupancy="_JSON {\"0\": {\"Al\": 1}, \"1\": {\"Al\": 1}, \"2\": {\"N\": 1}, \"3\": {\"N\": 1}}" energy=-29.596921920776367 free_energy=-29.596921920776367 stress="0.015976687893271446 -0.004506076220422983 0.006018680054694414 -0.004506076220422983 -0.025499384850263596 -0.004597117658704519 0.006018680054694414 -0.004597117658704519 -0.010013879276812077" pbc="T T T"
Al       1.53284808       0.86390067       2.51395078        0      -1.59464528      -0.16469644      -1.74991331      -0.27820784       0.89915991      -0.15420593
Al       0.06317841       1.83227865       5.00948377        1       0.38440036      -1.80666585       1.59449961      -0.58708507      -0.41271544       0.16725044
N        1.58572477       0.89623785       4.41422575        2       0.14193160       1.12964943      -0.09119200       0.25704151       0.38076577       0.00228069
N       -0.08152105       1.83862420       1.90381447        3       1.06831340       0.84171282       0.24660565       0.60825139      -0.86721027      -0.01532568
4
Lattice="3.128588 0.0 0.0 -1.5642939988088433 2.709436998432005 0.0 0.0 0.0 5.016955" Properties=species:S:1:pos:R:3:spacegroup_kinds:I:1:momenta:R:3:forces:R:3 spacegroup="P 1" unit_cell=conventional occupancy="_JSON {\"0\": {\"Al\": 1}, \"1\": {\"Al\": 1}, \"2\": {\"N\": 1}, \"3\": {\"N\": 1}}" energy=-29.462553024291992 free_energy=-29.462553024291992 stress="-0.005696858745068312 0.010849661193788052 -0.003906623926013708 0.010849661193788052 -0.019133860245347023 -0.012703259475529194 -0.003906623926013708 -0.012703259475529194 -0.01187142077833414" pbc="T T T"
Al       1.48347330       0.88264396       2.44527928        0      -0.30454519       1.01149501      -0.60004592       0.88393366       0.95768607       1.70777023
Al       0.06164410       1.77681260       5.07306071        1      -0.86715247      -0.75617388       0.43048992      -0.30080569       0.71655327      -1.72280097
N        1.61717709       0.94947183       4.40498425        2       0.38645864       0.04830095       0.18623295      -0.07234065      -0.67486012       0.48910844
N       -0.01486930       1.85626146       1.92266702        3       0.78523911      -0.30362212      -0.01667696      -0.51078743      -0.99937934      -0.47407740
4
Lattice="3.128588 0.0 0.0 -1.5642939988088433 2.709436998432005 0.0 0.0 0.0 5.016955" Properties=species:S:1:pos:R:3:spacegroup_kinds:I:1:momenta:R:3:forces:R:3 spacegroup="P 1" unit_cell=conventional occupancy="_JSON {\"0\": {\"Al\": 1}, \"1\": {\"Al\": 1}, \"2\": {\"N\": 1}, \"3\": {\"N\": 1}}" energy=-29.51875114440918 free_energy=-29.51875114440918 stress="-0.023370888084173203 0.0065400064922869205 -0.016098305583000183 0.0065400064922869205 0.006697283126413822 -0.0004824052448384464 -0.016098305583000183 -0.0004824052448384464 -0.02216132916510105" pbc="T T T"
Al       1.50607639       0.94974318       2.46463693        0       1.15921333       0.62635190       1.50689888       1.24247766      -0.60704583       1.15697455
Al       0.01335471       1.75088040       5.06242875        1      -0.91112014       0.14825242      -0.88962589       0.51474684       0.69610643      -1.43089032
N        1.62637959       0.90489620       4.42127857        2      -0.14223514      -0.64065028       0.21498380      -0.71771872      -0.51824230      -0.07984756
N        0.02538009       1.82158364       1.88963025        3      -0.10585795      -0.13395408      -0.83225686      -1.03950572       0.42918161       0.35376376
4
Lattice="3.128588 0.0 0.0 -1.5642939988088433 2.709436998432005 0.0 0.0 0.0 5.016955" Properties=species:S:1:pos:R:3:spacegroup_kinds:I:1:momenta:R:3:forces:R:3 spacegroup="P 1" unit_cell=conventional occupancy="_JSON {\"0\": {\"Al\": 1}, \"1\": {\"Al\": 1}, \"2\": {\"N\": 1}, \"3\": {\"N\": 1}}" energy=-29.605010986328125 free_energy=-29.605010986328125 stress="0.0015960546443238854 -0.006785857491195202 -0.0030953800305724144 -0.006785857491195202 0.0017805437091737986 0.0017245502676814795 -0.0030953800305724144 0.0017245502676814795 -0.023114865645766258" pbc="T T T"
Al       1.56693925       0.93861029       2.54470907        0       1.44875277      -0.98943818       1.48437436      -0.01659372      -0.29131672      -1.20299530
Al      -0.01304568       1.78057346       4.99752452        1       0.01689866       1.11024975      -1.70730060       0.38438684       0.02358215       0.50759375
N        1.58384204       0.87104970       4.42155574        2      -0.67927498      -0.02704965      -0.19037161      -0.39236847       0.15178026      -0.39792615
N        0.00122212       1.81989279       1.85992053        3      -0.78637636      -0.09376192       0.41329781       0.02457537       0.11595421       1.09332788
4
Lattice="3.128588 0.0 0.0 -1.5642939988088433 2.709436998432005 0.0 0.0 0.0 5.016955" Properties=species:S:1:pos:R:3:spacegroup_kinds:I:1:momenta:R:3:forces:R:3 spacegroup="P 1" unit_cell=conventional occupancy="_JSON {\"0\": {\"Al\": 1}, \"1\": {\"Al\": 1}, \"2\": {\"N\": 1}, \"3\": {\"N\": 1}}" energy=-29.470205307006836 free_energy=-29.470205307006836 stress="0.0032028115820139647 -0.017801277339458466 0.011838452890515327 -0.017801277339458466 -0.041349127888679504 0.007359886541962624 0.011838452890515327 0.007359886541962624 -0.005160250701010227" pbc="T T T"
Al       1.62755627       0.89950079       2.54516753        0       1.04970730      -0.99981837      -0.80202866      -1.41065276       0.15933102      -0.91778946
Al      -0.00757054       1.81703572       4.95606282        1      -0.03757963       0.11959825      -0.16512803      -0.26242900      -0.84351575       1.41445720
N        1.52756232       0.85151202       4.42065485        2      -0.42752201       0.29023052      -0.07965763       0.31766236       0.98894632      -0.00115237
N       -0.06966665       1.84442111       1.93994535        3      -0.58460562       0.58998963       1.04681434       1.35541928      -0.30476135      -0.49551505
4
Lattice="3.128588 0.0 0.0 -1.5642939988088433 2.709436998432005 0.0 0.0 0.0 5.016955" Properties=species:S:1:pos:R:3:spacegroup_kinds:I:1:momenta:R:3:forces:R:3 spacegroup="P 1" unit_cell=conventional occupancy="_JSON {\"0\": {\"Al\": 1}, \"1\": {\"Al\": 1}, \"2\": {\"N\": 1}, \"3\": {\"N\": 1}}" energy=-29.452985763549805 free_energy=-29.452985763549805 stress="-0.013224889524281025 -0.023750197142362595 0.007911471650004387 -0.023750197142362595 -0.04793164134025574 -0.007333249785006046 0.007911471650004387 -0.007333249785006046 0.028632983565330505" pbc="T T T"
Al       1.63184038       0.85684031       2.46693550        0      -0.97589024      -0.55899566      -1.34838351      -1.39010155       1.11025834       1.17303991
Al      -0.02377742       1.82170279       4.98999597        1      -0.28018887       0.45883497       1.28013510      -0.08532310       0.08283462       0.34697571
N        1.52792700       0.92957748       4.44479004        2       0.11446518       0.97873234       0.08012571       0.22035870      -0.17398694       0.05598964
N       -0.04718866       1.83921500       2.00086011        3       1.14161398      -0.87857164      -0.01187716       1.25506580      -1.01910615      -1.57600522
4
Lattice="3.128588 0.0 0.0 -1.5642939988088433 2.709436998432005 0.0 0.0 0.0 5.016955" Properties=species:S:1:pos:R:3:spacegroup_kinds:I:1:momenta:R:3:forces:R:3 spacegroup="P 1" unit_cell=conventional occupancy="_JSON {\"0\": {\"Al\": 1}, \"1\": {\"Al\": 1}, \"2\": {\"N\": 1}, \"3\": {\"N\": 1}}" energy=-29.53631591796875 free_energy=-29.53631591796875 stress="-0.019857529550790787 0.013828953728079796 -0.005717321764677763 0.013828953728079796 -0.003163986373692751 -0.0016709639457985759 -0.005717321764677763 -0.0016709639457985759 -0.006260556168854237" pbc="T T T"
Al       1.56291508       0.86348348       2.43836898        0      -1.44558764       0.38889077       0.34074961       0.67285991       0.11609284       1.45909679
Al      -0.01834141       1.83613134       5.05736567        1       0.19731473      -0.00921571       1.04742132       0.06595191       0.15003577      -1.19267440
N        1.54726700       0.95741146       4.47045641        2      -0.01023984       0.05685045       0.14844060       0.09761453      -0.44420874      -0.65174741
N        0.05576967       1.77068667       1.90062727        3       1.25851279      -0.43652552      -1.53661142      -0.83642668       0.17808014       0.38532460
4
Lattice="3.128588 0.0 0.0 -1.5642939988088433 2.709436998432005 0.0 0.0 0.0 5.016955" Properties=species:S:1:pos:R:3:spacegroup_kinds:I:1:momenta:R:3:forces:R:3 spacegroup="P 1" unit_cell=conventional occupancy="_JSON {\"0\": {\"Al\": 1}, \"1\": {\"Al\": 1}, \"2\": {\"N\": 1}, \"3\": {\"N\": 1}}" energy=-29.5310001373291 free_energy=-29.5310001373291 stress="-0.01829393021762371 0.01570759527385235 -0.011607651598751545 0.01570759527385235 0.003147992305457592 0.004605670925229788 -0.011607651598751545 0.004605670925229788 -0.017258863896131516" pbc="T T T"
Al       1.54701076       0.87273545       2.46070915        0       0.71855720      -0.11584347       0.49435313       1.07476795      -0.28505611       1.06925416
Al      -0.01761626       1.84389392       5.05391118        1       0.19346454       0.17720448      -0.69190126       0.23187572      -0.07941961      -1.16824996
N        1.56395352       0.94331120       4.45961399        2       0.32487384      -0.12409436      -0.51346235      -0.11546982      -0.20503232      -0.72920275
N        0.06831351       1.75176769       1.87546338        3      -1.23689559       0.06273335       0.71101054      -1.19117379       0.56950808       0.82819831
4
Lattice="3.128588 0.0 0.0 -1.5642939988088433 2.709436998432005 0.0 0.0 0.0 5.016955" Properties=species:S:1:pos:R:3:spacegroup_kinds:I:1:momenta:R:3:forces:R:3 spacegroup="P 1" unit_cell=conventional occupancy="_JSON {\"0\": {\"Al\": 1}, \"1\": {\"Al\": 1}, \"2\": {\"N\": 1}, \"3\": {\"N\": 1}}" energy=-29.61321258544922 free_energy=-29.61321258544922 stress="-0.008381551131606102 -0.0042767212726175785 0.005492850206792355 -0.0042767212726175785 -0.013937147334218025 0.0014804600505158305 0.005492850206792355 0.0014804600505158305 0.0124753313139081" pbc="T T T"
Al       1.57767910       0.87033378       2.48321563        0       0.42145910      -0.10086013       0.75449372      -0.50598717       0.14215404       0.64867616
Al       0.00878685       1.84488739       5.00616578        1       0.94842527       0.04829680      -0.67234648      -0.28190875      -0.37569666       0.05942894
N        1.54733732       0.91884310       4.41695257        2      -0.50233599      -0.06173834      -0.86681657       0.26756603       0.16352391       0.34766692
N       -0.02491940       1.77881442       1.96659670        3      -0.86754841       0.11430166       0.78466941       0.52032977       0.07001866      -1.05577207
4
Lattice="3.128588 0.0 0.0 -1.5642939988088433 2.709436998432005 0.0 0.0 0.0 5.016955" Properties=species:S:1:pos:R:3:spacegroup_kinds:I:1:momenta:R:3:forces:R:3 spacegroup="P 1" unit_cell=conventional occupancy="_JSON {\"0\": {\"Al\": 1}, \"1\": {\"Al\": 1}, \"2\": {\"N\": 1}, \"3\": {\"N\": 1}}" energy=-29.557836532592773 free_energy=-29.557836532592773 stress="-0.016363633796572685 -0.002947333035990596 0.012903678230941296 -0.002947333035990596 -0.006207604892551899 0.0015375785296782851 0.012903678230941296 0.0015375785296782851 -0.002714636269956827" pbc="T T T"
Al       1.59068816       0.88023429       2.52274586        0      -0.41625578       0.17887018       0.33160813      -0.90884268      -0.14030591      -0.36867976
Al       0.01872292       1.83477377       4.97781992        1       0.14973886      -0.20763048      -0.17578534      -0.72829807      -0.10046377       0.72652733
N        1.52039170       0.92489994       4.39464373        2       0.19754449       0.25939902       0.47781833       0.72476095      -0.09604930       0.71574378
N       -0.04216863       1.77342026       1.96745700        3       0.06897241      -0.23063875      -0.63364106       0.91237986       0.33681914      -1.07359123
4
Lattice="3.128588 0.0 0.0 -1.5642939988088433 2.709436998432005 0.0 0.0 0.0 5.016955" Properties=species:S:1:pos:R:3:spacegroup_kinds:I:1:momenta:R:3:forces:R:3 spacegroup="P 1" unit_cell=conventional occupancy="_JSON {\"0\": {\"Al\": 1}, \"1\": {\"Al\": 1}, \"2\": {\"N\": 1}, \"3\": {\"N\": 1}}" energy=-29.621110916137695 free_energy=-29.621110916137695 stress="-0.021500691771507263 0.00527633773162961 -0.00326747028157115 0.00527633773162961 0.010657747276127338 0.0019249131437391043 -0.00326747028157115 0.0019249131437391043 -0.0015897756675258279" pbc="T T T"
Al       1.54767653       0.89587760       2.50832858        0      -0.85809984       0.46896458      -1.00003009       0.39160424      -0.39028877      -0.15032820
Al       0.00665799       1.82067515       5.00342497        1      -0.72967001      -0.11082626       1.46536755      -0.00949478       0.22696832       0.34863091
N        1.57185935       0.94293298       4.45440721        2       0.62349883      -0.37686504       0.64593179      -0.01970140      -0.43335199      -0.83890057
N        0.01256033       1.75229423       1.88600533        3       0.96427099       0.01872671      -1.11126928      -0.36240816       0.59667265       0.64059770
4
Lattice="3.128588 0.0 0.0 -1.5642939988088433 2.709436998432005 0.0 0.0 0.0 5.016955" Properties=species:S:1:pos:R:3:spacegroup_kinds:I:1:momenta:R:3:forces:R:3 spacegroup="P 1" unit_cell=conventional occupancy="_JSON {\"0\": {\"Al\": 1}, \"1\": {\"Al\": 1}, \"2\": {\"N\": 1}, \"3\": {\"N\": 1}}" energy=-29.520854949951172 free_energy=-29.520854949951172 stress="-0.014047453179955482 0.011820831336081028 -0.014255546033382416 0.011820831336081028 -0.005614884663373232 0.009361447766423225 -0.014255546033382416 0.009361447766423225 -0.019570916891098022" pbc="T T T"
Al       1.52999431       0.91403913       2.46474572        0       0.09545108      -0.23101248      -1.18071316       1.21875072      -0.63577050       0.99289781
Al      -0.00890657       1.82180735       5.05208967        1       0.31216956      -0.10747420       0.45537620       0.39472985      -0.38378581      -1.12710106
N        1.59437712       0.88605552       4.45928982        2      -0.04799091      -0.53350340      -0.20523312      -0.40810770       0.35579032      -0.79021764
N        0.05384453       1.77207220       1.87145000        3      -0.35962973       0.87199011       0.93057003      -1.20537317       0.66376603       0.92442054
4
Lattice="3.128588 0.0 0.0 -1.5642939988088433 2.709436998432005 0.0 0.0 0.0 5.016955" Properties=species:S:1:pos:R:3:spacegroup_kinds:I:1:momenta:R:3:forces:R:3 spacegroup="P 1" unit_cell=conventional occupancy="_JSON {\"0\": {\"Al\": 1}, \"1\": {\"Al\": 1}, \"2\": {\"N\": 1}, \"3\": {\"N\": 1}}" energy=-29.61878776550293 free_energy=-29.61878776550293 stress="0.010117954574525356 -0.0018218673067167401 -0.00187302241101861 -0.0018218673067167401 -0.024782946333289146 0.004591038916260004 -0.00187302241101861 0.004591038916260004 2.6399833586765453e-05" pbc="T T T"
Al       1.53818036       0.90928016       2.47247635        0       0.23228547      -0.27447244       1.41733308       0.21200976       0.18702379       0.85530758
Al       0.01802691       1.81430746       5.03506513        1       0.60360859      -0.42930305      -1.11140748       0.03760115      -0.69444108      -0.55142671
N        1.59518009       0.85128046       4.42414642        2       0.09084572       0.02420728      -0.77345495      -0.19470197       0.84070528       0.01228227
N       -0.01452978       1.83034435       1.92467361        3      -0.92673975       0.67956824       0.46752929      -0.05490892      -0.33328772      -0.31616360
4
Lattice="3.128588 0.0 0.0 -1.5642939988088433 2.709436998432005 0.0 0.0 0.0 5.016955" Properties=species:S:1:pos:R:3:spacegroup_kinds:I:1:momenta:R:3:forces:R:3 spacegroup="P 1" unit_cell=conventional occupancy="_JSON {\"0\": {\"Al\": 1}, \"1\": {\"Al\": 1}, \"2\": {\"N\": 1}, \"3\": {\"N\": 1}}" energy=-29.623743057250977 free_energy=-29.623743057250977 stress="0.004300092346966267 -0.008672652766108513 0.002881931606680155 -0.008672652766108513 -0.0069438498467206955 -0.004434592556208372 0.002881931606680155 -0.004434592556208372 -0.014839217998087406" pbc="T T T"
Al       1.54321207       0.89379622       2.53645984        0      -0.00705446      -0.41529118       0.79444885      -0.25250137       0.39302969      -0.87834454
Al       0.03580899       1.79893952       4.98957807        1       0.09337894      -0.29525144      -0.61191864      -0.16601178       0.14058390       0.62745285
N        1.59619752       0.90645096       4.40111846        2      -0.02189777       1.09350669       0.27120889      -0.08899648      -0.09594018       0.34911028
N       -0.05911255       1.83464206       1.91219260        3      -0.06442670      -0.38296407      -0.45373919       0.50750971      -0.43767357      -0.09821844
