13
Lattice="7.26870274 0.0 0.0 3.634351370000001 6.294881225397555 0.0 3.634351370000001 2.0982937417991856 5.934870934989993" Properties=species:S:1:pos:R:3:spacegroup_kinds:I:1:momenta:R:3:forces:R:3 spacegroup="P 1" unit_cell=conventional occupancy="_JSON {\"0\": {\"Li\": 1}, \"1\": {\"Li\": 1}, \"2\": {\"Li\": 1}, \"3\": {\"Li\": 1}, \"4\": {\"Li\": 1}, \"5\": {\"Li\": 1}, \"6\": {\"P\": 1}, \"7\": {\"S\": 1}, \"8\": {\"S\": 1}, \"9\": {\"S\": 1}, \"10\": {\"S\": 1}, \"11\": {\"S\": 1}, \"12\": {\"Cl\": 1}}" energy=-53.28933334350586 free_energy=-53.28933334350586 stress="0.007786537054926157 0.005744718015193939 0.0007078826311044395 0.005744718015193939 0.005922159180045128 0.0026929499581456184 0.0007078826311044395 0.0026929499581456184 0.008286054246127605" pbc="T T T"
Li       9.32751725       6.46308939       1.87960882        0       0.12991028       0.25463310       0.82158451       0.38195178       0.05688126       0.43992943
Li      13.22215728       6.26391887       5.73676478        1       0.02981651      -0.06103328       0.79815770      -0.41194394      -0.16043767       0.01445822
Li       9.60700539       4.44065287       5.73717979        2      -0.44691872       0.81808590       0.30251769       0.11598726       0.76286608      -0.02130736
Li      12.36459675       7.75482414       3.28731575        3      -0.62334824       0.17723267      -0.24152166       0.07149743      -0.39021716       0.11099336
Li      11.31195072       4.04306608       3.61556372        4      -0.23841192       0.63449593       0.50854466       0.13037597       0.29139125       0.08712491
Li       9.89035217       8.00194029       5.81707545        5      -0.78672784      -0.21318862      -0.11235868       0.21894327      -0.11646284      -0.37699151
P        7.31997888       4.21864636       3.05613919        6       1.09364590       0.74231332      -1.82744445      -0.15948740      -0.79402536      -0.32645878
S        7.05210437       6.04153218       2.19780933        7       0.71868554      -0.72891687      -0.50979671      -0.41449952       0.54133612       0.23432806
S        9.22557729       3.57949334       2.43459008        8       0.67940067       0.84042961      -0.07366080      -0.35488686       0.18065372      -0.33988455
S        5.80641822       2.89671464       2.35283151        9      -0.27742634       0.29599878      -2.05729811       0.52487534       0.47436321       0.32427472
S        7.27564321       4.25170177       5.12633092       10       0.64535276       0.61924263       0.36681974      -0.23133931      -0.15495417      -0.25194499
S       11.13640910       6.26932687       4.53493252       11      -0.68817930      -2.05476917       1.35497164      -0.39721259      -0.33694872       0.10355369
Cl      -0.57372271       0.17645872      -0.24933703       12      -0.23579932      -1.32452402       0.66948442       0.52573884      -0.35444584       0.00192478
