13
Lattice="7.26870274 0.0 0.0 3.634351370000001 6.294881225397555 0.0 3.634351370000001 2.0982937417991856 5.934870934989993" Properties=species:S:1:pos:R:3:spacegroup_kinds:I:1:momenta:R:3:forces:R:3 spacegroup="P 1" unit_cell=conventional occupancy="_JSON {\"0\": {\"Li\": 1}, \"1\": {\"Li\": 1}, \"2\": {\"Li\": 1}, \"3\": {\"Li\": 1}, \"4\": {\"Li\": 1}, \"5\": {\"Li\": 1}, \"6\": {\"P\": 1}, \"7\": {\"S\": 1}, \"8\": {\"S\": 1}, \"9\": {\"S\": 1}, \"10\": {\"S\": 1}, \"11\": {\"S\": 1}, \"12\": {\"Cl\": 1}}" energy=-53.3634147644043 free_energy=-53.3634147644043 stress="-0.0007941997027955949 -2.3732249587737897e-07 -1.6894514942578098e-07 -2.3732249587737897e-07 -0.0007939298520796001 -1.002896112822782e-07 -1.6894514942578098e-07 -1.002896112822782e-07 -0.0007938966737128794" pbc="T T T"
Li       9.25387995       7.24703237       3.10460814        0       0.00000000       0.00000000       0.00000000       0.00422580      -0.00243468       0.00344816
Li      12.55222827       5.34273008       5.79769826        1       0.00000000       0.00000000       0.00000000      -0.00421136       0.00243321      -0.00344139
Li       9.25387995       5.34273008       5.79769826        2       0.00000000       0.00000000       0.00000000       0.00422537       0.00243910      -0.00344740
Li      12.55222827       7.24703237       3.10460814        3       0.00000000       0.00000000       0.00000000      -0.00421284      -0.00243150       0.00344172
Li      10.90305411       4.39057894       3.10460814        4       0.00000000       0.00000000       0.00000000       0.00000244       0.00487594       0.00344798
Li      10.90305411       8.19918351       5.79769826        5       0.00000000       0.00000000       0.00000000       0.00000197      -0.00486346      -0.00344138
P        7.26870274       4.19658748       2.96743547        6       0.00000000       0.00000000       0.00000000       0.00008567       0.00004651       0.00003627
S        7.26870637       6.13578650       2.28182731        7       0.00000000       0.00000000       0.00000000      -0.00001855      -0.01090872       0.00384729
S        8.94810016       3.22699113       2.28182731        8       0.00000000       0.00000000       0.00000000      -0.00945810       0.00544003       0.00384726
S        5.58931258       3.22699113       2.28182731        9       0.00000000       0.00000000       0.00000000       0.00937823       0.00541299       0.00382997
S        7.26870637       4.19658958       5.02426588       10       0.00000000       0.00000000       0.00000000      -0.00001879      -0.00000937      -0.01156971
S       10.90305411       6.29488123       4.45115320       11       0.00000000       0.00000000       0.00000000      -0.00000135      -0.00000106      -0.00000040
Cl       0.00000000       0.00000000       0.00000000       12       0.00000000       0.00000000       0.00000000       0.00000153       0.00000096       0.00000163
13
Lattice="7.26870274 0.0 0.0 3.634351370000001 6.294881225397555 0.0 3.634351370000001 2.0982937417991856 5.934870934989993" Properties=species:S:1:pos:R:3:spacegroup_kinds:I:1:momenta:R:3:forces:R:3 spacegroup="P 1" unit_cell=conventional occupancy="_JSON {\"0\": {\"Li\": 1}, \"1\": {\"Li\": 1}, \"2\": {\"Li\": 1}, \"3\": {\"Li\": 1}, \"4\": {\"Li\": 1}, \"5\": {\"Li\": 1}, \"6\": {\"P\": 1}, \"7\": {\"S\": 1}, \"8\": {\"S\": 1}, \"9\": {\"S\": 1}, \"10\": {\"S\": 1}, \"11\": {\"S\": 1}, \"12\": {\"Cl\": 1}}" energy=-53.348384857177734 free_energy=-53.348384857177734 stress="-0.0008746687090024352 -0.0008303233189508319 -0.00021401695266831666 -0.0008303233189508319 -0.0007837395532988012 -0.0006209607236087322 -0.00021401695266831666 -0.0006209607236087322 0.0007162614492699504" pbc="T T T"
Li       9.26609665       7.26833559       3.05533500        0       0.10074790       0.17426986      -0.30214897       0.09284953      -0.15331277       0.06845735
Li      12.59045605       5.33481379       5.80148646        1       0.14155893      -0.23498566      -0.05648460      -0.15490371       0.09767717      -0.06690778
Li       9.22457632       5.35967885       5.78415264        2      -0.37613748       0.26130244      -0.19256646       0.06865257       0.02988357       0.01645421
Li      12.55009775       7.23238135       3.06592435        3      -0.47011507      -0.11368880      -0.21048866      -0.10599802      -0.00485042       0.06329381
Li      10.92630200       4.40407369       3.10428658        4       0.17596548       0.02536679      -0.16019526      -0.06928349      -0.03375503      -0.01004436
Li      10.89737595       8.17495161       5.82006983        5       0.10838025      -0.22041196       0.19470135       0.02455720       0.05474284      -0.06313611
P        7.27342509       4.19079911       2.96477674        6       0.58628063      -0.39134489       0.02450798       0.21361195       0.08902398       0.13197495
S        7.26605168       6.14187646       2.29123561        7      -0.47554316      -0.03692893       0.46082628       0.05064607      -0.14980349       0.01423422
S        8.95801680       3.21582405       2.27490510        8       0.97038089      -0.82926553      -0.05995696      -0.08550026       0.14368719       0.09681790
S        5.60116026       3.22439752       2.29134107        9      -0.00793914       0.41729129      -0.05669028      -0.12409675       0.04128076      -0.14381292
S        7.26839371       4.19411977       5.03099422       10       0.37874208       0.25126689       0.21912945       0.04938415      -0.10997323      -0.15874149
S       10.90167927       6.29539240       4.44925093       11      -0.13571799       0.14673421       0.01706696       0.02314164       0.01336523      -0.00569632
Cl      -0.02698142       0.01279185       0.00159819       12      -0.99660332       0.55039428       0.12229918       0.01693916      -0.01796582       0.05710656
13
Lattice="7.26870274 0.0 0.0 3.634351370000001 6.294881225397555 0.0 3.634351370000001 2.0982937417991856 5.934870934989993" Properties=species:S:1:pos:R:3:spacegroup_kinds:I:1:momenta:R:3:forces:R:3 spacegroup="P 1" unit_cell=conventional occupancy="_JSON {\"0\": {\"Li\": 1}, \"1\": {\"Li\": 1}, \"2\": {\"Li\": 1}, \"3\": {\"Li\": 1}, \"4\": {\"Li\": 1}, \"5\": {\"Li\": 1}, \"6\": {\"P\": 1}, \"7\": {\"S\": 1}, \"8\": {\"S\": 1}, \"9\": {\"S\": 1}, \"10\": {\"S\": 1}, \"11\": {\"S\": 1}, \"12\": {\"Cl\": 1}}" energy=-53.3251953125 free_energy=-53.3251953125 stress="-0.0003082252515014261 -0.002071977825835347 0.0003723067056853324 -0.002071977825835347 0.0006309158634394407 -0.0013121869415044785 0.0003723067056853324 -0.0013121869415044785 0.00012732470349874347" pbc="T T T"
Li       9.28746345       7.27775839       3.04783436        0       0.06703767      -0.01613624       0.20511945      -0.03250412      -0.16470668      -0.03026897
Li      12.61340097       5.31841384       5.79117342        1       0.20554774       0.19608995      -0.19939275      -0.21610235       0.10900693      -0.08806654
Li       9.19795749       5.40403478       5.76474900        2      -0.06640373      -0.01756224       0.04590281       0.08273970       0.02083566       0.11072318
Li      12.47787213       7.22455522       3.03657737        3      -0.41643601       0.13405404      -0.04843139       0.04978880      -0.05214109      -0.04214002
Li      10.91713943       4.39521677       3.11428755        4      -0.11304939       0.08631220      -0.08808770      -0.03268522      -0.04676468       0.02727792
Li      10.89360153       8.12737568       5.84844171        5      -0.05634051      -0.11413336       0.32343591       0.05998713       0.18162346      -0.07139573
P        7.29576171       4.16834903       2.97424224        6       0.51241910      -0.56871251       0.53902593       0.01833053       0.50417668      -0.14319450
S        7.25249370       6.14315531       2.29430580        7      -0.41118980      -0.02354006      -0.31822951       0.12226027      -0.38644400       0.20466226
S        8.98034725       3.20328301       2.27557809        8       0.67435631      -0.27354545       0.45530916      -0.15276809       0.14222690       0.04431288
S        5.60067759       3.23674654       2.29284915        9      -0.17842836       0.04400868       0.03082248      -0.00556576      -0.01002940      -0.13153714
S        7.30086157       4.18107128       5.02988304       10       1.51689361      -0.82875099      -0.03949958      -0.01750704      -0.22725597      -0.03781976
S       10.88827859       6.29147399       4.44293062       11      -0.71670558      -0.35690250      -0.28681012       0.06592562      -0.03519223       0.05645400
Cl      -0.05798308       0.05226752       0.00056634       12      -1.01770104       1.73881847      -0.61916467       0.05810050      -0.03533560       0.10099234
13
Lattice="7.26870274 0.0 0.0 3.634351370000001 6.294881225397555 0.0 3.634351370000001 2.0982937417991856 5.934870934989993" Properties=species:S:1:pos:R:3:spacegroup_kinds:I:1:momenta:R:3:forces:R:3 spacegroup="P 1" unit_cell=conventional occupancy="_JSON {\"0\": {\"Li\": 1}, \"1\": {\"Li\": 1}, \"2\": {\"Li\": 1}, \"3\": {\"Li\": 1}, \"4\": {\"Li\": 1}, \"5\": {\"Li\": 1}, \"6\": {\"P\": 1}, \"7\": {\"S\": 1}, \"8\": {\"S\": 1}, \"9\": {\"S\": 1}, \"10\": {\"S\": 1}, \"11\": {\"S\": 1}, \"12\": {\"Cl\": 1}}" energy=-53.2375373840332 free_energy=-53.2375373840332 stress="0.0016262646531686187 -0.004431434441357851 -0.00046522176126018167 -0.004431434441357851 0.0019506519893184304 -0.0016023422358557582 -0.00046522176126018167 -0.0016023422358557582 0.0005886487197130919" pbc="T T T"
Li       9.27672090       7.26727793       3.09727207        0      -0.19203961      -0.30779719       0.17078556      -0.18139108      -0.07451124      -0.13346748
Li      12.65454636       5.35464307       5.70532362        1       0.07503475       0.35402725      -0.35265633      -0.15730333       0.07438977       0.19930270
Li       9.16684820       5.40157365       5.77293488        2      -0.16738859       0.01892308       0.02367279       0.26233059       0.07900261       0.10622112
Li      12.41741398       7.20386739       3.07390653        3      -0.14079357      -0.16928494       0.33776684       0.34001943       0.20520231      -0.29422879
Li      10.92138442       4.40888729       3.11532449        4       0.18094425      -0.13096040       0.28186605      -0.05087617      -0.17164615      -0.00771670
Li      10.87198814       8.11001991       5.86175354        5      -0.26333639      -0.02917564      -0.19871478       0.07616919       0.13783017      -0.09751083
P        7.28838940       4.17124805       2.99054673        6      -0.25215830       0.69212031       0.50209053       0.67748427       0.32283500      -0.51206297
S        7.23725025       6.15345178       2.28599778        7      -0.26903989      -0.47960018       0.16089422       0.04206578      -0.56896937       0.48426151
S        9.01707435       3.20379161       2.28925546        8       0.41499580       0.51036024       0.36667000      -0.64821380       0.28544694      -0.01968404
S        5.61213907       3.22257350       2.29713506        9       0.92944363      -0.91481314       0.20201610      -0.06245525       0.03102148      -0.03342411
S        7.35527865       4.13410856       5.04355312       10       1.31060743      -1.23832482       0.35421007      -0.33302432      -0.08726019      -0.08752529
S       10.87176962       6.28861188       4.43319359       11      -0.60790218       0.60859703      -0.52922138      -0.04441991      -0.12236826       0.31470501
Cl      -0.10067724       0.09822247      -0.03063341       12      -1.01836731       1.08592840      -1.31937966       0.07961458      -0.11097308       0.08112977
13
Lattice="7.26870274 0.0 0.0 3.634351370000001 6.294881225397555 0.0 3.634351370000001 2.0982937417991856 5.934870934989993" Properties=species:S:1:pos:R:3:spacegroup_kinds:I:1:momenta:R:3:forces:R:3 spacegroup="P 1" unit_cell=conventional occupancy="_JSON {\"0\": {\"Li\": 1}, \"1\": {\"Li\": 1}, \"2\": {\"Li\": 1}, \"3\": {\"Li\": 1}, \"4\": {\"Li\": 1}, \"5\": {\"Li\": 1}, \"6\": {\"P\": 1}, \"7\": {\"S\": 1}, \"8\": {\"S\": 1}, \"9\": {\"S\": 1}, \"10\": {\"S\": 1}, \"11\": {\"S\": 1}, \"12\": {\"Cl\": 1}}" energy=-53.208038330078125 free_energy=-53.208038330078125 stress="0.0024950646329671144 -0.004025550093501806 0.0004991117166355252 -0.004025550093501806 -0.0014249630039557815 -0.0001608285092515871 0.0004991117166355252 -0.0001608285092515871 -0.0017263185000047088" pbc="T T T"
Li       9.20954060       7.18453927       3.10745972        0      -0.38863462      -0.41249899      -0.22284763      -0.03389142       0.15543146      -0.12930690
Li      12.68375278       5.41804663       5.68582000        1       0.27633725      -0.01619428       0.08318319      -0.02320503       0.03106948       0.27247244
Li       9.21496680       5.39313278       5.79053631        2       0.50911391      -0.10810038       0.21349742       0.12001264      -0.07413810       0.09165999
Li      12.41741005       7.22638304       3.10621110        3       0.15135333       0.33279183      -0.17837354       0.33369407       0.34020519      -0.30705521
Li      10.95687205       4.37905746       3.21595955        4       0.13804891      -0.39833899       0.81982526      -0.04991806      -0.40676317      -0.05855771
Li      10.82930168       8.11988472       5.85353505        5       0.00095738       0.19797149      -0.00610807       0.05718518       0.08211551      -0.05746806
P        7.28939138       4.20213414       2.98910511        6       0.42648228       0.73712224      -0.92310404       0.62136984      -0.82564473      -0.36393592
S        7.21801532       6.13783925       2.31724440        7      -1.19912141      -0.85182176       1.02313152      -0.14316639       0.01134744       0.12494239
S        9.03032276       3.23653887       2.31436067        8      -0.28004130       0.89697489       0.82238553      -0.54730618       0.31129822      -0.23966600
S        5.63741870       3.17575096       2.28588182        9       0.83756204      -1.20670718      -0.18465059       0.01855151       0.28112671       0.13647923
S        7.39541173       4.08397620       5.03254723       10       0.81163811      -0.88021657      -0.42296417      -0.48270375       0.31867927       0.12321293
S       10.85539743       6.30358534       4.42135219       11       0.08284545       0.79623412       0.10113391       0.05036476      -0.11219627       0.42701960
Cl      -0.14079284       0.13487732      -0.07568024       12      -1.36654131       0.91278357      -1.12510881       0.07901277      -0.11253101      -0.01979682
13
Lattice="7.26870274 0.0 0.0 3.634351370000001 6.294881225397555 0.0 3.634351370000001 2.0982937417991856 5.934870934989993" Properties=species:S:1:pos:R:3:spacegroup_kinds:I:1:momenta:R:3:forces:R:3 spacegroup="P 1" unit_cell=conventional occupancy="_JSON {\"0\": {\"Li\": 1}, \"1\": {\"Li\": 1}, \"2\": {\"Li\": 1}, \"3\": {\"Li\": 1}, \"4\": {\"Li\": 1}, \"5\": {\"Li\": 1}, \"6\": {\"P\": 1}, \"7\": {\"S\": 1}, \"8\": {\"S\": 1}, \"9\": {\"S\": 1}, \"10\": {\"S\": 1}, \"11\": {\"S\": 1}, \"12\": {\"Cl\": 1}}" energy=-53.21017074584961 free_energy=-53.21017074584961 stress="-0.0020177490077912807 -0.0010679579572752118 0.0024809890892356634 -0.0010679579572752118 -0.005317560397088528 -0.0012937970459461212 0.0024809890892356634 -0.0012937970459461212 0.001750458381138742" pbc="T T T"
Li       9.14790542       7.12306392       3.04879124        0      -0.31777352      -0.35476844      -0.40827776       0.38290960       0.18049634       0.08554162
Li      12.74299904       5.45529064       5.76987216        1       0.22461879       0.19767297       0.79590091      -0.05015490       0.10207395      -0.04710617
Li       9.24218282       5.40054356       5.83832599        2       0.04467471      -0.05030479       0.30800986       0.09211530      -0.11217010      -0.08124015
Li      12.47320623       7.28653513       3.05804898        3       0.59534726       0.42547852      -0.20782524      -0.12103064       0.08168195       0.09176686
Li      10.95275403       4.27708613       3.33903744        4       0.20015832      -0.52952975       0.69422083       0.08818142      -0.20864691       0.17488223
Li      10.80723693       8.15968910       5.84136787        5      -0.00076381       0.20850982      -0.17616656       0.04963501      -0.08939942      -0.05392983
P        7.32188800       4.20474318       2.94920321        6       0.88950097      -0.40788513      -0.99497825      -0.57233161      -1.01275563       1.06669486
S        7.16942615       6.12376666       2.33563305        7      -1.38176767       0.01124904       0.02797533      -0.02920206       0.31474966      -0.24681368
S        9.00648024       3.27451575       2.32592603        8      -0.38810229       1.63640931      -0.15674919       0.45060357      -0.02259238      -0.68643296
S        5.66377946       3.14464044       2.29692351        9       0.34528247      -0.58293428       0.29363270      -0.02586635       0.33473188       0.09719246
S        7.41212909       4.04511729       5.04591122       10      -0.19767115      -1.23433855       1.01822287      -0.39497066       0.74961466      -0.45948684
S       10.88129776       6.33677841       4.43537891       11       0.76221165       0.92500087       0.59294769       0.05157291      -0.25552902       0.14552528
Cl      -0.17680895       0.14791403      -0.12921145       12      -0.77571572      -0.24455959      -1.78691321       0.07853840      -0.06225495      -0.08659378
13
Lattice="7.26870274 0.0 0.0 3.634351370000001 6.294881225397555 0.0 3.634351370000001 2.0982937417991856 5.934870934989993" Properties=species:S:1:pos:R:3:spacegroup_kinds:I:1:momenta:R:3:forces:R:3 spacegroup="P 1" unit_cell=conventional occupancy="_JSON {\"0\": {\"Li\": 1}, \"1\": {\"Li\": 1}, \"2\": {\"Li\": 1}, \"3\": {\"Li\": 1}, \"4\": {\"Li\": 1}, \"5\": {\"Li\": 1}, \"6\": {\"P\": 1}, \"7\": {\"S\": 1}, \"8\": {\"S\": 1}, \"9\": {\"S\": 1}, \"10\": {\"S\": 1}, \"11\": {\"S\": 1}, \"12\": {\"Cl\": 1}}" energy=-53.15060806274414 free_energy=-53.15060806274414 stress="-0.005516960751265287 -0.00010325719631509855 0.0040387799963355064 -0.00010325719631509855 -0.00601136265322566 -0.0038981137331575155 0.0040387799963355064 -0.0038981137331575155 0.0033226972445845604" pbc="T T T"
Li       9.15815509       7.09443732       2.97773250        0       0.35554289       0.02604487      -0.58770366       0.39624488       0.00936160       0.12776765
Li      12.82846005       5.50139861       5.86609350        1       0.40128023       0.43830871       0.27232706      -0.10301171       0.18011153      -0.44519284
Li       9.24489749       5.39630084       5.85662371        2       0.04762584      -0.03716329      -0.07330173       0.13044299      -0.08796357      -0.16915570
Li      12.52464110       7.37368618       3.11330661        3       0.24483538       0.64663588       0.40786109      -0.21185720       0.00084634       0.29884529
Li      10.98362510       4.20839785       3.47914455        4       0.11904830      -0.32840365       0.73782850       0.06163806      -0.17294914       0.25192589
Li      10.79769682       8.17430938       5.78928276        5      -0.08216206      -0.14612444      -0.46124539       0.01061482      -0.16404185       0.24123532
P        7.32019746       4.17320748       2.92689652        6      -0.80112158      -1.23722029       0.08799934      -1.00059283       0.05862922       1.73690033
S        7.09249938       6.12376201       2.34262895        7      -2.21405250       0.48301390       0.39422699       0.30556658      -0.12277129      -0.27386934
S        9.00285652       3.32858443       2.30599238        8       0.53615832       0.78182455      -0.77293650       1.08870828      -0.28629586      -0.65109015
S        5.68360088       3.11777616       2.31690216        9       0.37191411      -1.05408213       0.98857227      -0.38589281       0.10172445      -0.11066408
S        7.41278175       4.01126716       5.05887299       10      -0.26184816      -0.43011881      -0.01759992      -0.28406930       1.00620413      -0.83131301
S       10.92121099       6.35871881       4.45675403       11       1.15295871       0.59067763       0.51490378      -0.03748009      -0.49235126       0.00425496
Cl      -0.19058557       0.15296556      -0.18390025       12       0.12982053       0.26660708      -1.49093188       0.02968830      -0.03050430      -0.17964433
13
Lattice="7.26870274 0.0 0.0 3.634351370000001 6.294881225397555 0.0 3.634351370000001 2.0982937417991856 5.934870934989993" Properties=species:S:1:pos:R:3:spacegroup_kinds:I:1:momenta:R:3:forces:R:3 spacegroup="P 1" unit_cell=conventional occupancy="_JSON {\"0\": {\"Li\": 1}, \"1\": {\"Li\": 1}, \"2\": {\"Li\": 1}, \"3\": {\"Li\": 1}, \"4\": {\"Li\": 1}, \"5\": {\"Li\": 1}, \"6\": {\"P\": 1}, \"7\": {\"S\": 1}, \"8\": {\"S\": 1}, \"9\": {\"S\": 1}, \"10\": {\"S\": 1}, \"11\": {\"S\": 1}, \"12\": {\"Cl\": 1}}" energy=-53.27326202392578 free_energy=-53.27326202392578 stress="-0.0022411441896110773 -0.0029517142102122307 0.0031404991168528795 -0.0029517142102122307 -0.002720210701227188 -0.004934354219585657 0.0031404991168528795 -0.004934354219585657 0.002929501701146364" pbc="T T T"
Li       9.25001139       7.09741478       2.86137964        0       0.52350175      -0.00116641      -0.78761334       0.19962545      -0.39099956       0.11757760
Li      12.91632091       5.57045534       5.81813556        1       0.37534567       0.45000257      -0.47126805      -0.14759262       0.23536673      -0.32696575
Li       9.28443706       5.37800875       5.81514136        2       0.34881393      -0.03677562      -0.03823170       0.10253563      -0.13267261      -0.03847304
Li      12.53728871       7.50755797       3.22600631        3      -0.19788801       0.69473815       0.89938453      -0.00988475      -0.11079127       0.32727423
Li      11.08361909       4.06570284       3.62090103        4       0.53521839      -0.94607904       0.97275084      -0.21807089      -0.05990663       0.39119059
Li      10.78632575       8.13384612       5.74599208        5      -0.01504359      -0.33355101      -0.02089144      -0.05124630       0.18771097       0.58906764
P        7.27478696       4.13801350       2.95100465        6      -1.22098119      -0.56684510       0.83526104       0.25905663       1.03851974       1.03324616
S        7.01341581       6.13940073       2.37491097        7      -1.46475515       0.44669677       1.05549143       0.58300513      -0.68472022      -0.18592361
S        9.01812196       3.36246030       2.26795090        8       0.13716395       0.89690513      -1.34441883       0.38696539       0.08733275      -0.31914112
S        5.67174914       3.09625435       2.35213278        9      -0.25083767      -0.66300455       0.41132667      -0.74388260      -0.16260698      -0.51954287
S        7.41164560       4.00271795       5.04654284       10      -0.49531955       0.19644742      -0.54207418      -0.22412519       0.74735761      -0.48347700
S       10.96939044       6.35407536       4.47290916       11       1.65320678      -0.50592597       0.15395065      -0.07689860      -0.80522382      -0.30212098
Cl      -0.18743587       0.16935219      -0.23631779       12       0.07157471       0.36855766      -1.12366763      -0.05948736       0.05063360      -0.28271201
13
Lattice="7.26870274 0.0 0.0 3.634351370000001 6.294881225397555 0.0 3.634351370000001 2.0982937417991856 5.934870934989993" Properties=species:S:1:pos:R:3:spacegroup_kinds:I:1:momenta:R:3:forces:R:3 spacegroup="P 1" unit_cell=conventional occupancy="_JSON {\"0\": {\"Li\": 1}, \"1\": {\"Li\": 1}, \"2\": {\"Li\": 1}, \"3\": {\"Li\": 1}, \"4\": {\"Li\": 1}, \"5\": {\"Li\": 1}, \"6\": {\"P\": 1}, \"7\": {\"S\": 1}, \"8\": {\"S\": 1}, \"9\": {\"S\": 1}, \"10\": {\"S\": 1}, \"11\": {\"S\": 1}, \"12\": {\"Cl\": 1}}" energy=-53.47351837158203 free_energy=-53.47351837158203 stress="0.00381160038523376 -0.0033954542595893145 0.0011973525397479534 -0.0033954542595893145 0.0022785852197557688 -0.0019531002035364509 0.0011973525397479534 -0.0019531002035364509 -0.0005007556173950434" pbc="T T T"
Li       9.29412060       7.04265903       2.74271373        0       0.29863132      -0.54768438      -0.66239831       0.26583281      -0.49283874       0.16457108
Li      12.95073815       5.63476790       5.70127141        1       0.14566999       0.34238880      -0.91694216      -0.08296749       0.21881986       0.03241310
Li       9.32965861       5.36772802       5.78781329        2       0.09294487      -0.19488226      -0.38546413       0.02274475      -0.19685994       0.07052494
Li      12.50722285       7.59580624       3.39859543        3      -0.03440881       0.59087695       0.80215697       0.46035480       0.23537509      -0.07127042
Li      11.14277136       3.92590771       3.86327835        4       0.21793124      -0.50477637       1.56712163      -0.25623983      -0.12528767       0.13400313
Li      10.75467331       8.04927171       5.88088120        5      -0.05763210      -0.29655470       1.33845418      -0.03669967       0.34213188       0.23253158
P        7.23991951       4.14711062       2.99305923        6      -0.45685369       0.38867368       0.91663089       0.84919822       0.41020569      -0.48304430
S        6.96471249       6.13580627       2.40077039        7      -0.98913979      -0.50037382       0.60949850       0.42050630      -0.43474346      -0.03018463
S        9.03543300       3.40661168       2.21610772        8      -0.01646205       1.28238753      -0.84055831      -0.38327518       0.29011425       0.22482044
S        5.65712914       3.04954363       2.36181308        9      -0.97377225      -1.59615852       0.36232225      -0.51590389       0.20648822      -0.37886378
S        7.37890473       4.03106285       5.02034418       10      -1.24039287       1.21466475      -0.85848912      -0.04415315       0.21009275       0.44484302
S       11.03877747       6.32522646       4.46553531       11       2.19980921      -0.80553710      -0.39411681      -0.55340052      -0.71937764      -0.08553044
Cl      -0.17240637       0.19440682      -0.28400253       12       0.81367496       0.62697547      -1.53821557      -0.14599717       0.05587974      -0.25481367
13
Lattice="7.26870274 0.0 0.0 3.634351370000001 6.294881225397555 0.0 3.634351370000001 2.0982937417991856 5.934870934989993" Properties=species:S:1:pos:R:3:spacegroup_kinds:I:1:momenta:R:3:forces:R:3 spacegroup="P 1" unit_cell=conventional occupancy="_JSON {\"0\": {\"Li\": 1}, \"1\": {\"Li\": 1}, \"2\": {\"Li\": 1}, \"3\": {\"Li\": 1}, \"4\": {\"Li\": 1}, \"5\": {\"Li\": 1}, \"6\": {\"P\": 1}, \"7\": {\"S\": 1}, \"8\": {\"S\": 1}, \"9\": {\"S\": 1}, \"10\": {\"S\": 1}, \"11\": {\"S\": 1}, \"12\": {\"Cl\": 1}}" energy=-53.39570999145508 free_energy=-53.39570999145508 stress="0.006473001558333635 0.0027144155465066433 0.0010411889525130391 0.0027144155465066433 0.0005971604259684682 0.0048359776847064495 0.0010411889525130391 0.0048359776847064495 -0.004119591787457466" pbc="T T T"
Li       9.34209630       6.90864786       2.63999006        0       0.35226763      -0.83756899      -0.44585338       0.39763954      -0.22801359       0.19031811
Li      12.98182694       5.72821701       5.57615212        1       0.22521859       0.54619545      -0.45212002       0.09640675       0.14795654       0.34901792
Li       9.32886468       5.32260697       5.73306900        2       0.21056375      -0.37737566      -0.30212366       0.06044556      -0.13400862       0.22529943
Li      12.55089493       7.73986942       3.49743525        3       0.62574201       0.65007852       0.16521359       0.31276572       0.06864835       0.01400804
Li      11.14209177       3.85416043       4.06946891        4      -0.13101377      -0.46294151       0.89100197       0.07282549       0.27776238      -0.54175574
Li      10.75575643       8.05577150       6.09516464        5       0.05117800       0.38253225       0.58336073       0.02528907      -0.05875564      -0.80320460
P        7.23239950       4.16815657       3.00140147        6      -0.20500099      -0.05067381      -0.38369899       0.01228296      -1.10791957      -0.81887794
S        6.96333188       6.09161768       2.41674109        7       0.08254341      -1.25065119       0.58076365       0.10640930       0.65987372       0.27049083
S        9.01427793       3.46139688       2.18986630        8      -0.96237286       1.51648574      -0.56660403      -0.21856199       0.24322498       0.22930974
S        5.61339210       2.99381754       2.37140699        9      -0.90983936      -1.19644194       0.45317678       0.18916486       0.67739308      -0.10777439
S        7.32340390       4.05951976       5.01833259       10      -1.24736831       0.86980120       0.60105520       0.15328105      -0.01968208       0.71025020
S       11.09240994       6.29242252       4.45372580       11       0.50249464      -0.49570345      -0.53037861      -0.79434526      -0.10833279       0.03645905
Cl      -0.12784064       0.22204267      -0.32495149       12       1.40558730       0.70626341      -0.59379322      -0.41360307      -0.41814685       0.24645948
13