13
Lattice="7.26870274 0.0 0.0 3.634351370000001 6.294881225397555 0.0 3.634351370000001 2.0982937417991856 5.934870934989993" Properties=species:S:1:pos:R:3:spacegroup_kinds:I:1:forces:R:3 spacegroup="P 1" unit_cell=conventional occupancy="_JSON {\"0\": {\"Li\": 1}, \"1\": {\"Li\": 1}, \"2\": {\"Li\": 1}, \"3\": {\"Li\": 1}, \"4\": {\"Li\": 1}, \"5\": {\"Li\": 1}, \"6\": {\"P\": 1}, \"7\": {\"S\": 1}, \"8\": {\"S\": 1}, \"9\": {\"S\": 1}, \"10\": {\"S\": 1}, \"11\": {\"S\": 1}, \"12\": {\"Cl\": 1}}" energy=-53.3634147644043 free_energy=-53.3634147644043 stress="-0.0007941997027955949 -2.3732249587737897e-07 -1.6894514942578098e-07 -2.3732249587737897e-07 -0.0007939298520796001 -1.002896112822782e-07 -1.6894514942578098e-07 -1.002896112822782e-07 -0.0007938966737128794" pbc="T T T"
Li       9.25387995       7.24703237       3.10460814        0       0.00422580      -0.00243468       0.00344816
Li      12.55222827       5.34273008       5.79769826        1      -0.00421136       0.00243321      -0.00344139
Li       9.25387995       5.34273008       5.79769826        2       0.00422537       0.00243910      -0.00344740
Li      12.55222827       7.24703237       3.10460814        3      -0.00421284      -0.00243150       0.00344172
Li      10.90305411       4.39057894       3.10460814        4       0.00000244       0.00487594       0.00344798
Li      10.90305411       8.19918351       5.79769826        5       0.00000197      -0.00486346      -0.00344138
P        7.26870274       4.19658748       2.96743547        6       0.00008567       0.00004651       0.00003627
S        7.26870637       6.13578650       2.28182731        7      -0.00001855      -0.01090872       0.00384729
S        8.94810016       3.22699113       2.28182731        8      -0.00945810       0.00544003       0.00384726
S        5.58931258       3.22699113       2.28182731        9       0.00937823       0.00541299       0.00382997
S        7.26870637       4.19658958       5.02426588       10      -0.00001879      -0.00000937      -0.01156971
S       10.90305411       6.29488123       4.45115320       11      -0.00000135      -0.00000106      -0.00000040
Cl       0.00000000       0.00000000       0.00000000       12       0.00000153       0.00000096       0.00000163
