56
Lattice="10.7619164 0.0 0.0 -9.665296305262016 4.732958053065482 0.0 -0.5483100463354086 -2.3664790220718444 10.484177494289693" Properties=species:S:1:pos:R:3:spacegroup_kinds:I:1:forces:R:3 spacegroup="P 1" unit_cell=conventional occupancy="_JSON {\"0\": {\"H\": 1}, \"1\": {\"H\": 1}, \"2\": {\"H\": 1}, \"3\": {\"H\": 1}, \"4\": {\"H\": 1}, \"5\": {\"H\": 1}, \"6\": {\"H\": 1}, \"7\": {\"H\": 1}, \"8\": {\"H\": 1}, \"9\": {\"H\": 1}, \"10\": {\"H\": 1}, \"11\": {\"H\": 1}, \"12\": {\"H\": 1}, \"13\": {\"H\": 1}, \"14\": {\"H\": 1}, \"15\": {\"H\": 1}, \"16\": {\"H\": 1}, \"17\": {\"H\": 1}, \"18\": {\"H\": 1}, \"19\": {\"H\": 1}, \"20\": {\"H\": 1}, \"21\": {\"H\": 1}, \"22\": {\"H\": 1}, \"23\": {\"H\": 1}, \"24\": {\"H\": 1}, \"25\": {\"H\": 1}, \"26\": {\"H\": 1}, \"27\": {\"H\": 1}, \"28\": {\"H\": 1}, \"29\": {\"H\": 1}, \"30\": {\"H\": 1}, \"31\": {\"H\": 1}, \"32\": {\"C\": 1}, \"33\": {\"C\": 1}, \"34\": {\"C\": 1}, \"35\": {\"C\": 1}, \"36\": {\"C\": 1}, \"37\": {\"C\": 1}, \"38\": {\"C\": 1}, \"39\": {\"C\": 1}, \"40\": {\"C\": 1}, \"41\": {\"C\": 1}, \"42\": {\"C\": 1}, \"43\": {\"C\": 1}, \"44\": {\"C\": 1}, \"45\": {\"C\": 1}, \"46\": {\"C\": 1}, \"47\": {\"C\": 1}, \"48\": {\"O\": 1}, \"49\": {\"O\": 1}, \"50\": {\"O\": 1}, \"51\": {\"O\": 1}, \"52\": {\"O\": 1}, \"53\": {\"O\": 1}, \"54\": {\"O\": 1}, \"55\": {\"O\": 1}}" energy=-315.21038818359375 free_energy=-315.21038818359375 stress="0.0014445859706029296 -0.0005628958460874856 8.895734993075166e-08 -0.0005628958460874856 -0.0008546097669750452 -5.536115921245255e-08 8.895734993075166e-08 -5.536115921245255e-08 0.001575591741129756" pbc="T T T"
H       -0.01146674       2.27735378       1.83228363        0       0.05954270      -0.00327688       0.06233943
H        0.46354043      -0.32622644       8.65189388        1      -0.05491735       0.02317604      -0.06235560
H        7.11783644      -0.62125595       5.76730111        2       0.06303640      -0.00415061      -0.05874603
H        3.54784284       0.20590515       4.71687608        3      -0.05845488       0.02398752       0.05874146
H        5.94073499       0.08912526       3.40980511        4      -0.05953963       0.00327662      -0.06233640
H        4.91741781       0.32622656       7.07437241        5       0.05491364      -0.02317049       0.06236526
H       -1.73687825       0.62125612       9.95896514        6      -0.06303753       0.00415806       0.05874486
H        2.38142539       2.16057389       0.52521269        7       0.05845522      -0.02398753      -0.05874326
H       -1.38551754       1.18149074       2.11598468        8      -0.01113770       0.08955179       0.00594889
H       -8.44966009       2.81824228       8.36819218        9       0.04931350       0.07553636      -0.00592619
H       -2.58205883       2.70548917       6.85853646       10       0.02489168       0.08117889       0.03102906
H       -6.70482302       3.66072964       3.62563947       11       0.01337845       0.08383663      -0.03101350
H       -3.44713062       1.18498829       3.12610407       12       0.01115948      -0.08955108      -0.00594398
H       -6.59659444       1.91471577       7.35807408       13      -0.04930659      -0.07554530       0.00593408
H       -1.70227922       2.02746897       8.86772962       14      -0.02490146      -0.08118876      -0.03099532
H       -7.79312147       3.43870743       1.61644925       15      -0.01337464      -0.08383939       0.03100589
H       -0.77623955       0.71965044       4.36329759       16      -0.01323451      -0.01213581       0.02308625
H        1.56195590       2.67141835       6.12088029       17       0.00653398      -0.01672745      -0.02309611
H       -0.46326720       1.89389614       6.16073603       18       0.01919653      -0.01968148       0.01018695
H        0.70065483      -0.86930480       4.32344242       19      -0.02583010      -0.00920789      -0.01018449
H        6.70550784       1.64682865       0.87879114       20       0.01323267       0.01213489      -0.02308461
H       -5.84629404       2.06153966       9.60538593       21      -0.00653589       0.01672602       0.02309464
H        5.84422538      -1.89389611       9.56553025       22      -0.01918992       0.01966925      -0.01017790
H       -5.53330301       3.23578383       0.91864627       23       0.02584144       0.00921572       0.01018951
H        0.25118892       0.51320653       1.94904363       24      -0.01400551      -0.01703867      -0.02868803
H       -0.54820845      -1.79509606       8.53513266       25       0.00518261      -0.02145683       0.02868159
H       -2.80824660       2.46883415       5.11321221       26      -0.03240816      -0.01272090       0.00990947
H       -6.60574339       3.34870703       5.37096440       27       0.02347701      -0.02566459      -0.00992684
H       -5.08383701       1.85327246       3.29304512       28       0.01400349       0.01703832       0.02868876
H       -4.83274950       1.79509621       7.19113351       29      -0.00520877       0.02144544      -0.02866508
H       -0.92778153       4.63060280       0.12887636       30       0.03240994       0.01272114      -0.00991084
H        2.32140525       1.38425108      10.35530180       31      -0.02347633       0.02567159       0.00991855
C       -0.12855713       1.44666454       3.84724416       32      -0.06474268      -0.02297653       0.02711013
C        0.20337420      -1.12376651       6.63693320       33       0.04808306      -0.04911438      -0.02706054
C       -0.77313051       2.84277399       5.69386796       34       0.01803362      -0.04222234       0.05795839
C        1.39625478      -0.15339355       4.79030934       35      -0.03474540      -0.02991378      -0.05791857
C        6.05782528       0.91981442       1.39484461       36       0.06475732       0.02297635      -0.02710730
C       -5.58433221       1.12376664       9.08933301       37      -0.04809089       0.04911390       0.02707717
C       -3.51120741       1.89018400      10.03239813       38      -0.01806808       0.04223158      -0.05796748
C        4.53301351       2.51987247       0.45177955       39       0.03474668       0.02992284       0.05790892
C       -0.32629463       1.35816529       2.34320610       40       0.01374663       0.00373739      -0.01267591
C        0.34204071      -1.29021281       8.14097361       41      -0.01071887       0.00946924       0.01263762
C       -2.26788800       3.05478920       5.86652617       42      -0.01084253       0.00948851      -0.01263984
C        2.83194263      -0.62035932       4.61765398       43       0.01386693       0.00375766       0.01261322
C        6.25556281       1.00831376       2.89888263       44      -0.01376657      -0.00373831       0.01266785
C       -5.72299919       1.29021259       7.58529264       45       0.01074384      -0.00945100      -0.01267672
C       -2.01645026       1.67816876       9.85974052       46       0.01086627      -0.00949124       0.01260914
C        3.09732574       2.98683830       0.62443476       47      -0.01388341      -0.00375992      -0.01259685
O       -0.42617555       2.75832689       4.28195552       48      -0.00160970      -0.01560216      -0.00606984
O        1.04750943      -0.07664207       6.20222130       49      -0.00535068      -0.01474497       0.00606380
O       -1.17299330      -0.80891944       6.27987374       50      -0.00940012      -0.01381601      -0.00193629
O        1.24603232       1.12411994       4.20430308       51       0.00225535      -0.01656173       0.00193429
O       -3.30985250       4.34111019       0.96013316       52       0.00160855       0.01560111       0.00606056
O        4.33344870       0.07664206       9.52404498       53       0.00534962       0.01474164      -0.00606669
O       -4.20796492       0.80891948       9.44639259       54       0.00941768       0.01382507       0.00193665
O        4.68323598       1.24235916       1.03778561       55      -0.00226612       0.01654637      -0.00193261
