32
Lattice="6.17176593 0.0 0.0 0.0 8.01859859 0.0 0.0 0.0 13.03281824" Properties=species:S:1:pos:R:3:spacegroup_kinds:I:1:momenta:R:3:forces:R:3 spacegroup="P 1" unit_cell=conventional occupancy="_JSON {\"0\": {\"Li\": 1}, \"1\": {\"Li\": 1}, \"2\": {\"Li\": 1}, \"3\": {\"Li\": 1}, \"4\": {\"Li\": 1}, \"5\": {\"Li\": 1}, \"6\": {\"Li\": 1}, \"7\": {\"Li\": 1}, \"8\": {\"Li\": 1}, \"9\": {\"Li\": 1}, \"10\": {\"Li\": 1}, \"11\": {\"Li\": 1}, \"12\": {\"P\": 1}, \"13\": {\"P\": 1}, \"14\": {\"P\": 1}, \"15\": {\"P\": 1}, \"16\": {\"S\": 1}, \"17\": {\"S\": 1}, \"18\": {\"S\": 1}, \"19\": {\"S\": 1}, \"20\": {\"S\": 1}, \"21\": {\"S\": 1}, \"22\": {\"S\": 1}, \"23\": {\"S\": 1}, \"24\": {\"S\": 1}, \"25\": {\"S\": 1}, \"26\": {\"S\": 1}, \"27\": {\"S\": 1}, \"28\": {\"S\": 1}, \"29\": {\"S\": 1}, \"30\": {\"S\": 1}, \"31\": {\"S\": 1}}" energy=-140.17625427246094 free_energy=-140.17625427246094 stress="0.0013922369107604027 -0.0012427818728610873 0.0011272935662418604 -0.0012427818728610873 -0.002672157483175397 0.0007981312228366733 0.0011272935662418604 0.0007981312228366733 -0.000993384630419314" pbc="T T T"
Li       2.38859844       0.30085258       4.30397218        0       0.18728281       0.11451781      -0.17356688      -0.07525823      -0.03808922       0.05785197
Li       3.83796452       7.77773590       8.60462817        1       0.02196042       0.04462201       0.12931632      -0.13324185      -0.20894167       0.23411411
Li       5.40862600       7.87645031       2.23277886        2      -0.05890025       0.29531942       0.10284139       0.07721604      -0.18172158      -0.08595216
Li       0.73106555       0.32331029      10.77900528        3       0.15733102       0.38620108       0.06549191      -0.09751569      -0.10629691       0.17561191
Li       3.82673566       4.26313547       8.59773705        4       0.37894848       0.16964064       0.04964106      -0.12164516      -0.02787191       0.21216245
Li       2.42195998       3.72397588       4.39642412        5       0.09925642       0.13857473       0.16654552      -0.05155651      -0.01572454      -0.12105035
Li       0.64649762       3.80871420      10.82889548        6       0.16682763       0.09447657       0.17580339       0.10109752      -0.19834313       0.06678540
Li       5.43642771       4.33761539       2.18376780        7       0.13732254      -0.03629829       0.19684379       0.14149128      -0.14023730      -0.00195393
Li       3.14627486      -0.04512504      -0.01516914        8      -0.26898805       0.04211678       0.16206707      -0.11001601       0.10578266       0.02113388
Li      -0.08644895       0.14977573       6.57133113        9      -0.18092633       0.46348191       0.12587167      -0.09426863      -0.10649854      -0.03294226
Li       3.07935878       4.05224650      -0.02951329       10      -0.08285000      -0.14323771       0.08950419      -0.05211845      -0.04129557       0.04052839
Li      -0.02948551       4.08155235       6.59339795       11      -0.19131283       0.11537938      -0.08673281       0.07624166      -0.05149140      -0.15007085
P        0.97234510       2.01406680       1.17659183       12       0.18718616      -0.09547793       0.43477405      -0.19090427       0.06963373      -0.20614913
P        5.24952666       6.01472335      11.86890427       13       0.36912622       0.29753264       0.57480238      -0.05172809       0.22077027      -0.08798799
P        3.99340381       5.99815638       5.32263577       14      -1.03642113       0.19868675      -0.72696289       0.26979479      -0.36141431       0.35687786
P        2.13276731       2.00153780       7.69015722       15      -0.19761984      -0.11751641      -0.23446744      -0.08163428      -0.18379250       0.22358616
S        5.06616992       2.03475452       1.31161892       16      -0.15222189       0.84014749      -0.29774246       0.58019257       0.06332725      -0.06080751
S        1.11573512       5.99966130      11.72448402       17       0.15209764      -0.20204730      -0.56132838      -0.09623481       0.12105361      -0.00529086
S        1.96611677       5.98888709       5.20039292       18      -0.34290464      -0.87488829      -0.01867561       0.09142500       0.04633875      -0.02843331
S        4.17995875       1.95815557       7.86303732       19       0.01650465      -0.76134806      -0.01304572      -0.05355750       0.29638600      -0.18855566
S        1.74390704       1.98618893      12.23475045       20       1.02996860      -0.00908387      -0.00834183      -0.19373927       0.16377717       0.39941859
S        4.49838618       6.01550393       0.79538398       21       0.25055098      -0.18441595      -0.25043821       0.00910060       0.15288198      -0.15976411
S        4.77598781       5.99489067       7.30867451       22       0.19912842      -0.60279875       0.28370979      -0.10612781       0.11862620      -0.48785502
S        1.33620292       2.01707453       5.76520904       23      -0.35973065       0.31869853       0.23596969       0.13420425       0.01849701      -0.10468090
S        1.69034260       0.24973519       1.99339089       24       0.12653540       0.13905738      -0.34461352      -0.15153158       0.29294109      -0.03999338
S        4.49260016       7.72999909      11.00278950       25       0.27047944       0.10196427      -0.23308833       0.18084373      -0.08270925       0.07681052
S        4.73188856       7.72272602       4.52331886       26      -0.66460338      -0.02554196       0.03720139       0.08830974       0.20489360      -0.01585369
S        1.41521130       0.24994179       8.51879482       27       0.47589931      -0.32355088      -0.16387054       0.05968682       0.16063374      -0.16517480
S        4.47067696       4.32015647      11.01630655       28      -0.39877573       0.02956340       0.27264051      -0.00102159      -0.10015801      -0.06724922
S        1.69915344       3.76898990       2.00823735       29       0.05230250      -0.01704602      -0.64268405      -0.13889323      -0.38130617      -0.06434183
S        1.40610025       3.73298441       8.53415142       30      -0.30173925       0.01749189       0.43213850       0.16400158      -0.08099750      -0.01902207
S        4.79266130       4.26709708       4.49421452       31      -0.04171458      -0.41422124       0.22039604      -0.17261213       0.27134618       0.22824785
