32
Lattice="6.17176593 0.0 0.0 0.0 8.01859859 0.0 0.0 0.0 13.03281824" Properties=species:S:1:pos:R:3:spacegroup_kinds:I:1:momenta:R:3:forces:R:3 spacegroup="P 1" unit_cell=conventional occupancy="_JSON {\"0\": {\"Li\": 1}, \"1\": {\"Li\": 1}, \"2\": {\"Li\": 1}, \"3\": {\"Li\": 1}, \"4\": {\"Li\": 1}, \"5\": {\"Li\": 1}, \"6\": {\"Li\": 1}, \"7\": {\"Li\": 1}, \"8\": {\"Li\": 1}, \"9\": {\"Li\": 1}, \"10\": {\"Li\": 1}, \"11\": {\"Li\": 1}, \"12\": {\"P\": 1}, \"13\": {\"P\": 1}, \"14\": {\"P\": 1}, \"15\": {\"P\": 1}, \"16\": {\"S\": 1}, \"17\": {\"S\": 1}, \"18\": {\"S\": 1}, \"19\": {\"S\": 1}, \"20\": {\"S\": 1}, \"21\": {\"S\": 1}, \"22\": {\"S\": 1}, \"23\": {\"S\": 1}, \"24\": {\"S\": 1}, \"25\": {\"S\": 1}, \"26\": {\"S\": 1}, \"27\": {\"S\": 1}, \"28\": {\"S\": 1}, \"29\": {\"S\": 1}, \"30\": {\"S\": 1}, \"31\": {\"S\": 1}}" energy=-140.31869506835938 free_energy=-140.31869506835938 stress="-0.007170621771365404 2.192676484824574e-09 1.4358696454053188e-08 2.192676484824574e-09 -0.008259431459009647 -8.233715931282859e-09 1.4358696454053188e-08 -8.233715931282859e-09 -0.005266324616968632" pbc="T T T"
Li       2.40329652       0.26860172       4.33400832        0       0.00000000       0.00000000       0.00000000      -0.02603538       0.00549063      -0.00432197
Li       3.76846941       7.74999687       8.69880992        1       0.00000000       0.00000000       0.00000000       0.02603702      -0.00549237       0.00432299
Li       5.48917948       7.74999687       2.18240080        2       0.00000000       0.00000000       0.00000000      -0.02603671      -0.00549081       0.00432295
Li       0.68258645       0.26860172      10.85041744        3       0.00000000       0.00000000       0.00000000       0.02603558       0.00549220      -0.00431979
Li       3.76846941       4.27790102       8.69880992        4       0.00000000       0.00000000       0.00000000       0.02603680       0.00549240       0.00432271
Li       2.40329652       3.74069757       4.33400832        5       0.00000000       0.00000000       0.00000000      -0.02603621      -0.00549138      -0.00432144
Li       0.68258645       3.74069757      10.85041744        6       0.00000000       0.00000000       0.00000000       0.02603617      -0.00549153      -0.00431982
Li       5.48917948       4.27790102       2.18240080        7       0.00000000       0.00000000       0.00000000      -0.02603587       0.00549093       0.00432247
Li       3.08588297       0.00000000       0.00000000        8       0.00000000       0.00000000       0.00000000      -0.00000006      -0.00000091      -0.00000053
Li       0.00000000       0.00000000       6.51640912        9       0.00000000       0.00000000       0.00000000       0.00000064      -0.00000133       0.00000073
Li       3.08588297       4.00929929       0.00000000       10       0.00000000       0.00000000       0.00000000      -0.00000041       0.00000136      -0.00000062
Li       0.00000000       4.00929929       6.51640912       11       0.00000000       0.00000000       0.00000000       0.00000061       0.00000165       0.00000007
P        0.94051010       2.00464965       1.16601784       12       0.00000000       0.00000000       0.00000000      -0.02067157      -0.00000136       0.02376104
P        5.23125583       6.01394894      11.86680040       13       0.00000000       0.00000000       0.00000000       0.02066620       0.00000011      -0.02375959
P        4.02639307       6.01394894       5.35039128       14       0.00000000       0.00000000       0.00000000      -0.02066794       0.00000196      -0.02375571
P        2.14537286       2.00464965       7.68242696       15       0.00000000       0.00000000       0.00000000       0.02066895       0.00000006       0.02375802
S        5.08970823       2.00464965       1.30575389       16       0.00000000       0.00000000       0.00000000      -0.25450584       0.00000076       0.01679099
S        1.08205770       6.01394894      11.72706435       17       0.00000000       0.00000000       0.00000000       0.25450712       0.00000073      -0.01679280
S        2.00382526       6.01394894       5.21065523       18       0.00000000       0.00000000       0.00000000      -0.25450608      -0.00000011      -0.01679254
S        4.16794067       2.00464965       7.82216301       19       0.00000000       0.00000000       0.00000000       0.25450057      -0.00000078       0.01679026
S        1.68132889       2.00464965      12.25955363       20       0.00000000       0.00000000       0.00000000       0.10912213       0.00000029      -0.16719590
S        4.49043704       6.01394894       0.77326461       21       0.00000000       0.00000000       0.00000000      -0.10912044       0.00000015       0.16718082
S        4.76721186       6.01394894       7.28967373       22       0.00000000       0.00000000       0.00000000       0.10912083       0.00000018       0.16717981
S        1.40455407       2.00464965       5.74314451       23       0.00000000       0.00000000       0.00000000      -0.10911945       0.00000057      -0.16718134
S        1.67233151       0.29287049       2.00524453       24       0.00000000       0.00000000       0.00000000       0.13957849      -0.21272597       0.08709837
S        4.49943442       7.72572810      11.02757371       25       0.00000000       0.00000000       0.00000000      -0.13957626       0.21272358      -0.08709237
S        4.75821447       7.72572810       4.51116459       26       0.00000000       0.00000000       0.00000000       0.13957499       0.21272320      -0.08709194
S        1.41355146       0.29287049       8.52165365       27       0.00000000       0.00000000       0.00000000      -0.13957578      -0.21272178       0.08709067
S        4.49943442       4.30216979      11.02757371       28       0.00000000       0.00000000       0.00000000      -0.13957821      -0.21272624      -0.08709246
S        1.67233151       3.71642880       2.00524453       29       0.00000000       0.00000000       0.00000000       0.13957907       0.21272635       0.08709942
S        1.41355146       3.71642880       8.52165365       30       0.00000000       0.00000000       0.00000000      -0.13957570       0.21272169       0.08709069
S        4.75821447       4.30216979       4.51116459       31       0.00000000       0.00000000       0.00000000       0.13957658      -0.21272422      -0.08709296
32
Lattice="6.17176593 0.0 0.0 0.0 8.01859859 0.0 0.0 0.0 13.03281824" Properties=species:S:1:pos:R:3:spacegroup_kinds:I:1:momenta:R:3:forces:R:3 spacegroup="P 1" unit_cell=conventional occupancy="_JSON {\"0\": {\"Li\": 1}, \"1\": {\"Li\": 1}, \"2\": {\"Li\": 1}, \"3\": {\"Li\": 1}, \"4\": {\"Li\": 1}, \"5\": {\"Li\": 1}, \"6\": {\"Li\": 1}, \"7\": {\"Li\": 1}, \"8\": {\"Li\": 1}, \"9\": {\"Li\": 1}, \"10\": {\"Li\": 1}, \"11\": {\"Li\": 1}, \"12\": {\"P\": 1}, \"13\": {\"P\": 1}, \"14\": {\"P\": 1}, \"15\": {\"P\": 1}, \"16\": {\"S\": 1}, \"17\": {\"S\": 1}, \"18\": {\"S\": 1}, \"19\": {\"S\": 1}, \"20\": {\"S\": 1}, \"21\": {\"S\": 1}, \"22\": {\"S\": 1}, \"23\": {\"S\": 1}, \"24\": {\"S\": 1}, \"25\": {\"S\": 1}, \"26\": {\"S\": 1}, \"27\": {\"S\": 1}, \"28\": {\"S\": 1}, \"29\": {\"S\": 1}, \"30\": {\"S\": 1}, \"31\": {\"S\": 1}}" energy=-140.32032775878906 free_energy=-140.32032775878906 stress="-0.007025536615401506 2.3822052753530443e-05 -3.308996610940085e-06 2.3822052753530443e-05 -0.00810362957417965 2.4307562853209674e-05 -3.308996610940085e-06 2.4307562853209674e-05 -0.005214198026806116" pbc="T T T"
Li       2.40139795       0.26644861       4.33486365        0      -0.10391421      -0.08358974       0.06562775      -0.02468283       0.00848095      -0.00651835
Li       3.77116507       7.75050990       8.69811846        1       0.02711693      -0.00965524       0.04239042       0.01918526      -0.00595701       0.00510850
Li       5.48802066       7.75094566       2.18452069        2      -0.02741728      -0.01510424       0.07384285      -0.02471385      -0.00609708       0.00008659
Li       0.68398936       0.26590941      10.84982913        3       0.06000094      -0.09149944      -0.00211521       0.02469734       0.01160307      -0.00347954
Li       3.76774333       4.27531839       8.69562255        4      -0.05464669      -0.10322782      -0.15583448       0.02849642       0.01321668       0.00936244
Li       2.40334480       3.74151752       4.33372129        5       0.04399600       0.03652485      -0.06892693      -0.02692785      -0.00594089      -0.00437597
Li       0.68165480       3.73904517      10.85100190        6      -0.05748895      -0.02680841       0.04927760       0.02570024      -0.00294865      -0.00603260
Li       5.48917134       4.27866126       2.18258035        7      -0.00711043       0.13882489      -0.02410438      -0.02387556       0.00337917       0.00312451
Li       3.08631003       0.00071542      -0.00085606        8       0.09220220       0.00160651      -0.02292894       0.00055341      -0.00078507       0.00313559
Li      -0.00003094       0.00159066       6.51574235        9      -0.02800254       0.05646628      -0.01234038      -0.00121582      -0.00185541      -0.00012633
Li       3.08587116       4.00971812      -0.00282068       10      -0.02055989      -0.00627615      -0.06268112      -0.00162703       0.00022180       0.00562923
Li      -0.00173367       4.00914280       6.51842020       11      -0.07531577       0.00970741       0.05265411       0.00213863      -0.00064779      -0.00228364
P        0.94076658       2.00451024       1.16614825       12      -0.02394172      -0.14720497      -0.00988599      -0.02129143       0.00248686       0.03721273
P        5.23193380       6.01391590      11.86732554       13       0.12316230       0.05408314       0.03406081       0.00253522      -0.00532930      -0.01647191
P        4.02735709       6.01339150       5.35023238       14       0.09933370      -0.16245139      -0.04560622      -0.04041713       0.00646695      -0.03006964
P        2.14519580       2.00465980       7.68183025       15       0.06271289      -0.09970342      -0.14567765       0.01187538      -0.00419636       0.03949104
S        5.08951256       2.00497323       1.30538690       16      -0.13506496       0.08771497      -0.12955567      -0.24546081       0.00138232       0.01734504
S        1.08247881       6.01462560      11.72759924       17       0.07059246       0.11889092       0.05757544       0.25454873      -0.00869686      -0.01635481
S        2.00363728       6.01433766       5.21091257       18      -0.09804748       0.15484464       0.08656701      -0.23906329      -0.00688147      -0.01552102
S        4.16803462       2.00472221       7.82305974       19      -0.03548504       0.12270539       0.23139233       0.25117135      -0.00237880       0.01259591
S        1.68178916       2.00465020      12.26014534       20       0.21651665       0.04708388       0.20273343       0.10866093      -0.00290629      -0.17412660
S        4.48986848       6.01412822       0.77481817       21      -0.19210631       0.03128713       0.32816326      -0.10190324       0.00005474       0.14517489
S        4.76729171       6.01432050       7.28917973       22       0.03463655      -0.08746076      -0.15964753       0.11179822      -0.00317333       0.17166767
S        1.40427251       2.00471044       5.74307920       23      -0.14397769      -0.01890727      -0.07409841      -0.10759021       0.00151707      -0.16929851
S        1.67194444       0.29177279       2.00544106       24      -0.10623491      -0.27102188       0.14537934       0.13624412      -0.20151283       0.08225483
S        4.49940207       7.72514741      11.02705745       25       0.15045841      -0.07543997      -0.00138917      -0.13577986       0.21214762      -0.08318941
S        4.75718398       7.72608575       4.51072761       26      -0.00134379       0.06778952      -0.11615136       0.14135903       0.21008982      -0.08258822
S        1.41276256       0.29201821       8.52145686       27      -0.10954002      -0.19712588      -0.12318189      -0.12719196      -0.19746134       0.07941955
S        4.49851702       4.30245828      11.02651510       28      -0.24014800       0.03048811      -0.13925180      -0.12950794      -0.20247880      -0.08126958
S        1.67344389       3.71718305       2.00500233       29       0.22927803       0.18411262      -0.03579589       0.13237539       0.19941959       0.08104262
S        1.41365380       3.71752724       8.52138223       30      -0.00154353       0.28517549      -0.08029904      -0.13689093       0.19874695       0.08407419
S        4.75914311       4.30152976       4.51122756       31       0.25188218      -0.03182918       0.03980772       0.13680011      -0.20996630      -0.08501928
32
Lattice="6.17176593 0.0 0.0 0.0 8.01859859 0.0 0.0 0.0 13.03281824" Properties=species:S:1:pos:R:3:spacegroup_kinds:I:1:momenta:R:3:forces:R:3 spacegroup="P 1" unit_cell=conventional occupancy="_JSON {\"0\": {\"Li\": 1}, \"1\": {\"Li\": 1}, \"2\": {\"Li\": 1}, \"3\": {\"Li\": 1}, \"4\": {\"Li\": 1}, \"5\": {\"Li\": 1}, \"6\": {\"Li\": 1}, \"7\": {\"Li\": 1}, \"8\": {\"Li\": 1}, \"9\": {\"Li\": 1}, \"10\": {\"Li\": 1}, \"11\": {\"Li\": 1}, \"12\": {\"P\": 1}, \"13\": {\"P\": 1}, \"14\": {\"P\": 1}, \"15\": {\"P\": 1}, \"16\": {\"S\": 1}, \"17\": {\"S\": 1}, \"18\": {\"S\": 1}, \"19\": {\"S\": 1}, \"20\": {\"S\": 1}, \"21\": {\"S\": 1}, \"22\": {\"S\": 1}, \"23\": {\"S\": 1}, \"24\": {\"S\": 1}, \"25\": {\"S\": 1}, \"26\": {\"S\": 1}, \"27\": {\"S\": 1}, \"28\": {\"S\": 1}, \"29\": {\"S\": 1}, \"30\": {\"S\": 1}, \"31\": {\"S\": 1}}" energy=-140.3229217529297 free_energy=-140.3229217529297 stress="-0.006797195877879858 4.79082518722862e-05 2.294899786647875e-05 4.79082518722862e-05 -0.007747321389615536 0.0001314988185185939 2.294899786647875e-05 0.0001314988185185939 -0.005052164196968079" pbc="T T T"
Li       2.39781515       0.26356155       4.33401669        0      -0.15912069      -0.03414530      -0.08034106      -0.02009027       0.01387479      -0.00476974
Li       3.77469090       7.75135588       8.69555695        1       0.15070452       0.01577147      -0.15566677       0.01129424      -0.00885093       0.01032784
Li       5.48571317       7.75220522       2.18970739        2      -0.11766943       0.03205843       0.13493605      -0.02085839      -0.00426129      -0.01100079
Li       0.68485407       0.26446669      10.84977955        3       0.07173958      -0.03975677       0.00062297       0.02678195       0.01620850      -0.00399392
Li       3.76624311       4.27322481       8.68847196        4      -0.07927942      -0.12744139      -0.21402435       0.03018345       0.02188808       0.02319223
Li       2.40421336       3.74344308       4.33374247        5       0.03768971      -0.02051838       0.04328246      -0.03151292      -0.01122633      -0.00450768
Li       0.67615484       3.73771632      10.85223134        6      -0.24661521      -0.07694990      -0.04319075       0.03509570      -0.00436546      -0.00999392
Li       5.48780642       4.28475913       2.18133073        7      -0.04188587       0.19492481      -0.04569218      -0.01555871      -0.01126581       0.00375658
Li       3.08824014       0.00272700      -0.00301628        8       0.08521137       0.06603214      -0.12501539       0.00080755      -0.00322553       0.01365148
Li      -0.00311421       0.00410054       6.51474757        9      -0.09331188       0.08662755      -0.09496113       0.00224388       0.00001908       0.00117956
Li       3.08820518       4.01088567      -0.00525583       10       0.13255235       0.04725958      -0.05085616      -0.00671147      -0.00028446       0.01624017
Li      -0.00598537       4.01212763       6.51985809       11      -0.10791184       0.10298149       0.05090319       0.01721469      -0.00911161       0.00100070
P        0.94113808       2.00406315       1.16503392       12       0.21326628      -0.01698951      -0.13134351      -0.02674330       0.01396980       0.09590907
P        5.23382935       6.01432607      11.86718296       13       0.18467184      -0.01852668      -0.13805762      -0.03126151      -0.03129208       0.01465148
P        4.02821311       6.01207130       5.34965943       14       0.11078862      -0.24836230       0.00339158      -0.06759007       0.02355856      -0.04556137
P        2.14584588       2.00304169       7.68212014       15       0.08862286      -0.32861472       0.18185970      -0.04094381       0.02937352       0.03392743
S        5.08850463       2.00569630       1.30457084       16      -0.01274259      -0.01930086       0.01320874      -0.21804661       0.00320022       0.01626506
S        1.08383686       6.01506705      11.72747850       17       0.19809662       0.02083352      -0.05268283       0.24965335      -0.01695280      -0.01766032
S        2.00290784       6.01538593       5.21135865       18      -0.17768479       0.15029797       0.05726352      -0.21202941      -0.01865959      -0.01467884
S        4.16750618       2.00511956       7.82473554       19      -0.03993572       0.01071123       0.14069089       0.26857370      -0.00922163       0.00614799
S        1.68357871       2.00431530      12.26166338       20       0.19711212      -0.16672945       0.05333045       0.10907270      -0.00240213      -0.19972950
S        4.48943998       6.01472071       0.77784331       21       0.05120285       0.12627112       0.53712359      -0.08755741       0.00594722       0.09009892
S        4.76756219       6.01431779       7.28767718       22       0.09875842       0.12980141      -0.20092696       0.11435661      -0.00312739       0.18626079
S        1.40180140       2.00375061       5.74298062       23      -0.47109589      -0.06882495       0.05690085      -0.09231479       0.00769780      -0.15218917
S        1.67177643       0.28937394       2.00620478       24       0.00992965      -0.30024949       0.04445712       0.12253107      -0.16889767       0.06094989
S        4.50047312       7.72500627      11.02695837       25       0.00697478       0.03194071       0.04314627      -0.13525771       0.21298219      -0.08747877
S        4.75690532       7.72586886       4.51019606       26      -0.04865384       0.11661951       0.05949284       0.13373281       0.20477213      -0.07366604
S        1.41187828       0.29058782       8.52091240       27      -0.04725875      -0.21380434       0.08305697      -0.11644116      -0.19369547       0.08114943
S        4.49661635       4.30178001      11.02565372       28      -0.32813627      -0.00256603      -0.09756060      -0.11376423      -0.16845362      -0.07260371
S        1.67385711       3.71964103       2.00526082       29      -0.10169089       0.46010910       0.03287195       0.11598119       0.15896977       0.05967065
S        1.41395701       3.71929197       8.52178781       30       0.04689017       0.23070700       0.08873862      -0.12840036       0.16106835       0.07041477
S        4.76142970       4.30084508       4.51134459       31       0.38878135      -0.14016695      -0.19495848       0.12755911      -0.20823613      -0.08696039
32
Lattice="6.17176593 0.0 0.0 0.0 8.01859859 0.0 0.0 0.0 13.03281824" Properties=species:S:1:pos:R:3:spacegroup_kinds:I:1:momenta:R:3:forces:R:3 spacegroup="P 1" unit_cell=conventional occupancy="_JSON {\"0\": {\"Li\": 1}, \"1\": {\"Li\": 1}, \"2\": {\"Li\": 1}, \"3\": {\"Li\": 1}, \"4\": {\"Li\": 1}, \"5\": {\"Li\": 1}, \"6\": {\"Li\": 1}, \"7\": {\"Li\": 1}, \"8\": {\"Li\": 1}, \"9\": {\"Li\": 1}, \"10\": {\"Li\": 1}, \"11\": {\"Li\": 1}, \"12\": {\"P\": 1}, \"13\": {\"P\": 1}, \"14\": {\"P\": 1}, \"15\": {\"P\": 1}, \"16\": {\"S\": 1}, \"17\": {\"S\": 1}, \"18\": {\"S\": 1}, \"19\": {\"S\": 1}, \"20\": {\"S\": 1}, \"21\": {\"S\": 1}, \"22\": {\"S\": 1}, \"23\": {\"S\": 1}, \"24\": {\"S\": 1}, \"25\": {\"S\": 1}, \"26\": {\"S\": 1}, \"27\": {\"S\": 1}, \"28\": {\"S\": 1}, \"29\": {\"S\": 1}, \"30\": {\"S\": 1}, \"31\": {\"S\": 1}}" energy=-140.3253173828125 free_energy=-140.3253173828125 stress="-0.0062655131332576275 0.00012913125101476908 6.028112329659052e-05 0.00012913125101476908 -0.0072027244605124 0.00021266733529046178 6.028112329659052e-05 0.00021266733529046178 -0.004699174780398607" pbc="T T T"
Li       2.39094990       0.26390506       4.33193645        0      -0.23685974       0.05882402      -0.11914652      -0.00797368       0.00937637       0.00050299
Li       3.78038412       7.75165625       8.68862916        1       0.12785892       0.00440902      -0.20887018      -0.00257922      -0.00917730       0.02314279
Li       5.48029660       7.75286826       2.19420505        2      -0.15796638       0.06653867       0.09217007      -0.00921321       0.00159152      -0.01811852
Li       0.68902900       0.26480969      10.85003202        3       0.12741929       0.05947701       0.03928756       0.01937885       0.01361910      -0.00219573
Li       3.76262958       4.26602045       8.68104980        4      -0.09506406      -0.29071866      -0.22972390       0.03999165       0.04374094       0.03632954
Li       2.40665222       3.74229315       4.33588276        5       0.11946161      -0.05319666       0.08880211      -0.03881180      -0.00952445      -0.01026351
Li       0.66504238       3.73705350      10.84939984        6      -0.32253217       0.05372292      -0.10813310       0.05580602      -0.01069073      -0.00633930
Li       5.48538167       4.29395611       2.17762401        7      -0.06251827       0.25027135      -0.13728207      -0.00150045      -0.03644636       0.00780961
Li       3.09364698       0.00507034      -0.00948079        8       0.16383309       0.06551698      -0.16939328      -0.00572591      -0.00333925       0.03831475
Li      -0.00613551       0.00677932       6.51313462        9      -0.10606600       0.02760019       0.00043679       0.00789084       0.00230465       0.00185434
Li       3.09187085       4.01157438      -0.00855644       10       0.03807011       0.06499120      -0.16113884      -0.01609775      -0.00070845       0.03299630
Li      -0.00882672       4.01574186       6.52298092       11      -0.05477573       0.12915163       0.06955133       0.02945534      -0.01667082      -0.00597673
P        0.94349585       2.00249466       1.16378219       12       0.37884767      -0.27279333      -0.27632706      -0.04832136       0.05217842       0.16637193
P        5.23554066       6.01504084      11.86569418       13       0.28063297       0.09165746      -0.22060703      -0.05995715      -0.05270481       0.08025333
P        4.02996371       6.00983096       5.35033749       14       0.28055408      -0.30623014       0.17207111      -0.11885093       0.05856120      -0.09558914
P        2.14600953       2.00166166       7.68392006       15       0.00303659      -0.01079307       0.27548449      -0.08721161       0.04109517      -0.00266309
S        5.08856533       2.00496324       1.30450242       16      -0.05862632      -0.10683175       0.02168449      -0.18101968       0.01083383       0.01143423
S        1.08566803       6.01481782      11.72716323       17       0.23222310      -0.01987856       0.03560672       0.22689524      -0.02466920      -0.02458876
S        2.00080628       6.01672286       5.21189923       18      -0.37827540       0.24453061       0.09755695      -0.14647007      -0.03580087      -0.01104340
S        4.16771746       2.00548300       7.82664180       19       0.06010899       0.08891966       0.35155727       0.26692826      -0.01886237      -0.00261941
S        1.68552347       2.00314298      12.26238998       20       0.26132392      -0.22696045       0.03727651       0.11110050       0.00691070      -0.22575530
S        4.48983884       6.01554794       0.78300671       21       0.04384865       0.11502242       0.83567647      -0.07166217       0.01288379      -0.00885943
S        4.76814539       6.01445733       7.28724048       22      -0.06221975      -0.01884681       0.02984054       0.11706628      -0.01460032       0.20056619
S        1.39694921       2.00250923       5.74301083       23      -0.83073284      -0.15970775      -0.03220987      -0.06617370       0.01474878      -0.10845825
S        1.67258374       0.28652718       2.00704673       24       0.16324514      -0.41477514       0.15840115       0.11207622      -0.13975078       0.03384843
S        4.50020690       7.72499410      11.02643329       25       0.01260878      -0.09025797      -0.10711332      -0.12171545       0.20954384      -0.09951869
S        4.75609404       7.72753173       4.51011562       26      -0.16845485       0.19585734      -0.07366063       0.11369372       0.16916540      -0.05068146
S        1.41033803       0.28936429       8.52232849       27      -0.18821814      -0.13173500       0.09330117      -0.09756005      -0.18256800       0.07519189
S        4.49314878       4.30133832      11.02456802       28      -0.49606745      -0.12945712      -0.10278398      -0.09961901      -0.13208501      -0.06508151
S        1.67407658       3.72415441       2.00513539       29       0.09927891       0.61903774       0.00577185       0.09584093       0.09152929       0.02889068
S        1.41471467       3.72183611       8.52072283       30       0.25682042       0.32180307      -0.19659429      -0.12641761       0.13322276       0.06981058
S        4.76493851       4.29923797       4.50999945       31       0.56920489      -0.22514885      -0.26149253       0.11075690      -0.18370700      -0.06956542
32
Lattice="6.17176593 0.0 0.0 0.0 8.01859859 0.0 0.0 0.0 13.03281824" Properties=species:S:1:pos:R:3:spacegroup_kinds:I:1:momenta:R:3:forces:R:3 spacegroup="P 1" unit_cell=conventional occupancy="_JSON {\"0\": {\"Li\": 1}, \"1\": {\"Li\": 1}, \"2\": {\"Li\": 1}, \"3\": {\"Li\": 1}, \"4\": {\"Li\": 1}, \"5\": {\"Li\": 1}, \"6\": {\"Li\": 1}, \"7\": {\"Li\": 1}, \"8\": {\"Li\": 1}, \"9\": {\"Li\": 1}, \"10\": {\"Li\": 1}, \"11\": {\"Li\": 1}, \"12\": {\"P\": 1}, \"13\": {\"P\": 1}, \"14\": {\"P\": 1}, \"15\": {\"P\": 1}, \"16\": {\"S\": 1}, \"17\": {\"S\": 1}, \"18\": {\"S\": 1}, \"19\": {\"S\": 1}, \"20\": {\"S\": 1}, \"21\": {\"S\": 1}, \"22\": {\"S\": 1}, \"23\": {\"S\": 1}, \"24\": {\"S\": 1}, \"25\": {\"S\": 1}, \"26\": {\"S\": 1}, \"27\": {\"S\": 1}, \"28\": {\"S\": 1}, \"29\": {\"S\": 1}, \"30\": {\"S\": 1}, \"31\": {\"S\": 1}}" energy=-140.32345581054688 free_energy=-140.32345581054688 stress="-0.005565043073147535 0.00023737821902614087 0.00010195036156801507 0.00023737821902614087 -0.006668873596936464 0.0002175739937229082 0.00010195036156801507 0.0002175739937229082 -0.004341532476246357" pbc="T T T"
Li       2.38038690       0.26635757       4.32646493        0      -0.30212830       0.07857086      -0.14988167       0.01149790      -0.00042979       0.01232998
Li       3.78600992       7.75122601       8.67981492        1       0.17320120      -0.04100831      -0.23816000      -0.01900914      -0.00518703       0.04008788
Li       5.47594569       7.75496624       2.19854461        2      -0.15295197       0.06903870       0.14165831       0.00130495       0.00368248      -0.02494006
Li       0.69482994       0.26503813      10.85161832        3       0.14165201      -0.01212489       0.04671723       0.00963768       0.00966126      -0.00555766
Li       3.75865022       4.25721429       8.67325953        4      -0.09560915      -0.25577130      -0.21692667       0.05382061       0.06895293       0.05045239
Li       2.41006511       3.74043744       4.33813912        5       0.05406696      -0.01552294       0.05486060      -0.04603226      -0.00703933      -0.01540384
Li       0.65421669       3.73830938      10.84581439        6      -0.32588415      -0.00286367      -0.08943034       0.07657713      -0.02138208      -0.00035713
Li       5.48351158       4.30308073       2.17508641        7      -0.12513623       0.22427547      -0.05728838       0.01263018      -0.06132574       0.00996414
Li       3.10160469       0.00399797      -0.01668689        8       0.31871937      -0.05411527      -0.26208820      -0.01868836       0.00221977       0.06842403
Li      -0.00872139       0.00855110       6.51357045        9      -0.00416536       0.03750888       0.02909411       0.01184337       0.00541983      -0.00367912
Li       3.09277514       4.01507175      -0.01596333       10      -0.01274833       0.11915695      -0.20506305      -0.02728924      -0.00148621       0.05660377
Li      -0.01050068       4.02046097       6.52757244       11       0.01067651       0.16320849       0.18385197       0.03809369      -0.02498400      -0.02056897
P        0.94574200       2.00149469       1.16165818       12       0.29616274       0.15878824      -0.29816853      -0.06692174       0.07291524       0.24707609
P        5.23709006       6.01598752      11.86357945       13       0.19873256       0.03835726      -0.31415333      -0.08589752      -0.07308941       0.16703215
P        4.03158185       6.00820902       5.35262713       14       0.18591559      -0.11050559       0.33964531      -0.17635170       0.08485126      -0.18193643
P        2.14543906       2.00182882       7.68675627       15      -0.12409875      -0.05727741       0.49413922      -0.10016596      -0.00461064      -0.05638105
S        5.08824507       2.00411263       1.30524416       16      -0.05130583       0.10343167       0.01868572      -0.13478154       0.02164694       0.00350976
S        1.08778614       6.01449493      11.72709447       17       0.41221077      -0.19954170       0.03305708       0.20078695      -0.03371466      -0.03225715
S        1.99798264       6.01813901       5.21118050       18      -0.27228476       0.15780875      -0.14075604      -0.07216517      -0.05339166      -0.00278421