32
Lattice="6.17176593 0.0 0.0 0.0 8.01859859 0.0 0.0 0.0 13.03281824" Properties=species:S:1:pos:R:3:spacegroup_kinds:I:1:forces:R:3 spacegroup="P 1" unit_cell=conventional occupancy="_JSON {\"0\": {\"Li\": 1}, \"1\": {\"Li\": 1}, \"2\": {\"Li\": 1}, \"3\": {\"Li\": 1}, \"4\": {\"Li\": 1}, \"5\": {\"Li\": 1}, \"6\": {\"Li\": 1}, \"7\": {\"Li\": 1}, \"8\": {\"Li\": 1}, \"9\": {\"Li\": 1}, \"10\": {\"Li\": 1}, \"11\": {\"Li\": 1}, \"12\": {\"P\": 1}, \"13\": {\"P\": 1}, \"14\": {\"P\": 1}, \"15\": {\"P\": 1}, \"16\": {\"S\": 1}, \"17\": {\"S\": 1}, \"18\": {\"S\": 1}, \"19\": {\"S\": 1}, \"20\": {\"S\": 1}, \"21\": {\"S\": 1}, \"22\": {\"S\": 1}, \"23\": {\"S\": 1}, \"24\": {\"S\": 1}, \"25\": {\"S\": 1}, \"26\": {\"S\": 1}, \"27\": {\"S\": 1}, \"28\": {\"S\": 1}, \"29\": {\"S\": 1}, \"30\": {\"S\": 1}, \"31\": {\"S\": 1}}" energy=-140.31869506835938 free_energy=-140.31869506835938 stress="-0.007170621771365404 2.192676484824574e-09 1.4358696454053188e-08 2.192676484824574e-09 -0.008259431459009647 -8.233715931282859e-09 1.4358696454053188e-08 -8.233715931282859e-09 -0.005266324616968632" pbc="T T T"
Li       2.40329652       0.26860172       4.33400832        0      -0.02603538       0.00549063      -0.00432197
Li       3.76846941       7.74999687       8.69880992        1       0.02603702      -0.00549237       0.00432299
Li       5.48917948       7.74999687       2.18240080        2      -0.02603671      -0.00549081       0.00432295
Li       0.68258645       0.26860172      10.85041744        3       0.02603558       0.00549220      -0.00431979
Li       3.76846941       4.27790102       8.69880992        4       0.02603680       0.00549240       0.00432271
Li       2.40329652       3.74069757       4.33400832        5      -0.02603621      -0.00549138      -0.00432144
Li       0.68258645       3.74069757      10.85041744        6       0.02603617      -0.00549153      -0.00431982
Li       5.48917948       4.27790102       2.18240080        7      -0.02603587       0.00549093       0.00432247
Li       3.08588297       0.00000000       0.00000000        8      -0.00000006      -0.00000091      -0.00000053
Li       0.00000000       0.00000000       6.51640912        9       0.00000064      -0.00000133       0.00000073
Li       3.08588297       4.00929929       0.00000000       10      -0.00000041       0.00000136      -0.00000062
Li       0.00000000       4.00929929       6.51640912       11       0.00000061       0.00000165       0.00000007
P        0.94051010       2.00464965       1.16601784       12      -0.02067157      -0.00000136       0.02376104
P        5.23125583       6.01394894      11.86680040       13       0.02066620       0.00000011      -0.02375959
P        4.02639307       6.01394894       5.35039128       14      -0.02066794       0.00000196      -0.02375571
P        2.14537286       2.00464965       7.68242696       15       0.02066895       0.00000006       0.02375802
S        5.08970823       2.00464965       1.30575389       16      -0.25450584       0.00000076       0.01679099
S        1.08205770       6.01394894      11.72706435       17       0.25450712       0.00000073      -0.01679280
S        2.00382526       6.01394894       5.21065523       18      -0.25450608      -0.00000011      -0.01679254
S        4.16794067       2.00464965       7.82216301       19       0.25450057      -0.00000078       0.01679026
S        1.68132889       2.00464965      12.25955363       20       0.10912213       0.00000029      -0.16719590
S        4.49043704       6.01394894       0.77326461       21      -0.10912044       0.00000015       0.16718082
S        4.76721186       6.01394894       7.28967373       22       0.10912083       0.00000018       0.16717981
S        1.40455407       2.00464965       5.74314451       23      -0.10911945       0.00000057      -0.16718134
S        1.67233151       0.29287049       2.00524453       24       0.13957849      -0.21272597       0.08709837
S        4.49943442       7.72572810      11.02757371       25      -0.13957626       0.21272358      -0.08709237
S        4.75821447       7.72572810       4.51116459       26       0.13957499       0.21272320      -0.08709194
S        1.41355146       0.29287049       8.52165365       27      -0.13957578      -0.21272178       0.08709067
S        4.49943442       4.30216979      11.02757371       28      -0.13957821      -0.21272624      -0.08709246
S        1.67233151       3.71642880       2.00524453       29       0.13957907       0.21272635       0.08709942
S        1.41355146       3.71642880       8.52165365       30      -0.13957570       0.21272169       0.08709069
S        4.75821447       4.30216979       4.51116459       31       0.13957658      -0.21272422      -0.08709296
