4
Lattice="3.128588 0.0 0.0 -1.5642939988088433 2.709436998432005 0.0 0.0 0.0 5.016955" Properties=species:S:1:pos:R:3:spacegroup_kinds:I:1:forces:R:3 spacegroup="P 1" unit_cell=conventional occupancy="_JSON {\"0\": {\"Al\": 1}, \"1\": {\"Al\": 1}, \"2\": {\"N\": 1}, \"3\": {\"N\": 1}}" energy=-29.673717498779297 free_energy=-29.673717498779297 stress="-0.002225232310593128 -1.2788584626832744e-06 -1.8173601290527586e-08 -1.2788584626832744e-06 -0.002227471675723791 -3.5106658913264255e-08 -1.8173601290527586e-08 -3.5106658913264255e-08 -0.005453627090901136" pbc="T T T"
Al       1.56429556       0.90314476       2.50490041        0      -0.00003294       0.00002107       0.00553244
Al      -0.00000156       1.80629224       5.01337791        1       0.00003282      -0.00001994       0.00552388
N        1.56429556       0.90314476       4.41849749        2      -0.00003455       0.00002071      -0.00553048
N       -0.00000156       1.80629224       1.91001999        3       0.00003464      -0.00002170      -0.00552588
