56
Lattice="10.7619164 0.0 0.0 -9.665296305262016 4.732958053065482 0.0 -0.5483100463354086 -2.3664790220718444 10.484177494289693" Properties=species:S:1:pos:R:3:spacegroup_kinds:I:1:forces:R:3 spacegroup="P 1" unit_cell=conventional occupancy="_JSON {\"0\": {\"H\": 1}, \"1\": {\"H\": 1}, \"2\": {\"H\": 1}, \"3\": {\"H\": 1}, \"4\": {\"H\": 1}, \"5\": {\"H\": 1}, \"6\": {\"H\": 1}, \"7\": {\"H\": 1}, \"8\": {\"H\": 1}, \"9\": {\"H\": 1}, \"10\": {\"H\": 1}, \"11\": {\"H\": 1}, \"12\": {\"H\": 1}, \"13\": {\"H\": 1}, \"14\": {\"H\": 1}, \"15\": {\"H\": 1}, \"16\": {\"H\": 1}, \"17\": {\"H\": 1}, \"18\": {\"H\": 1}, \"19\": {\"H\": 1}, \"20\": {\"H\": 1}, \"21\": {\"H\": 1}, \"22\": {\"H\": 1}, \"23\": {\"H\": 1}, \"24\": {\"H\": 1}, \"25\": {\"H\": 1}, \"26\": {\"H\": 1}, \"27\": {\"H\": 1}, \"28\": {\"H\": 1}, \"29\": {\"H\": 1}, \"30\": {\"H\": 1}, \"31\": {\"H\": 1}, \"32\": {\"C\": 1}, \"33\": {\"C\": 1}, \"34\": {\"C\": 1}, \"35\": {\"C\": 1}, \"36\": {\"C\": 1}, \"37\": {\"C\": 1}, \"38\": {\"C\": 1}, \"39\": {\"C\": 1}, \"40\": {\"C\": 1}, \"41\": {\"C\": 1}, \"42\": {\"C\": 1}, \"43\": {\"C\": 1}, \"44\": {\"C\": 1}, \"45\": {\"C\": 1}, \"46\": {\"C\": 1}, \"47\": {\"C\": 1}, \"48\": {\"O\": 1}, \"49\": {\"O\": 1}, \"50\": {\"O\": 1}, \"51\": {\"O\": 1}, \"52\": {\"O\": 1}, \"53\": {\"O\": 1}, \"54\": {\"O\": 1}, \"55\": {\"O\": 1}}" energy=-315.21038818359375 free_energy=-315.21038818359375 stress="0.00144460320007056 -0.0005629246588796377 7.606578833474487e-08 -0.0005629246588796377 -0.0008545421878807247 -6.688543408017722e-08 7.606578833474487e-08 -6.688543408017722e-08 0.001575600472278893" pbc="T T T"
H       -0.01146674       2.27735377       1.83228363        0       0.05954189      -0.00327702       0.06233909
H        0.46354043      -0.32622645       8.65189388        1      -0.05491716       0.02317691      -0.06235539
H        7.11783644      -0.62125594       5.76730111        2       0.06303564      -0.00415087      -0.05874532
H        3.54784285       0.20590514       4.71687609        3      -0.05845508       0.02398673       0.05874167
H        5.94073499       0.08912525       3.40980510        4      -0.05953966       0.00327801      -0.06233624
H        4.91741780       0.32622654       7.07437241        5       0.05491430      -0.02316889       0.06236494
H       -1.73687825       0.62125610       9.95896512        6      -0.06303749       0.00415864       0.05874458
H        2.38142539       2.16057390       0.52521269        7       0.05845541      -0.02398802      -0.05874440
H       -1.38551754       1.18149075       2.11598469        8      -0.01114972       0.08954994       0.00594681
H       -8.44966010       2.81824229       8.36819218        9       0.04931292       0.07553661      -0.00592623
H       -2.58205883       2.70548917       6.85853646       10       0.02489174       0.08117914       0.03102901
H       -6.70482302       3.66072965       3.62563947       11       0.01337853       0.08383621      -0.03101369
H       -3.44713061       1.18498829       3.12610407       12       0.01115927      -0.08955087      -0.00594446
H       -6.59659445       1.91471578       7.35807408       13      -0.04930628      -0.07554577       0.00593417
H       -1.70227922       2.02746897       8.86772962       14      -0.02490161      -0.08118936      -0.03099502
H       -7.79312146       3.43870742       1.61644925       15      -0.01337425      -0.08383927       0.03100557
H       -0.77623955       0.71965044       4.36329758       16      -0.01323448      -0.01213643       0.02308597
H        1.56195591       2.67141835       6.12088029       17       0.00653424      -0.01672768      -0.02309652
H       -0.46326720       1.89389614       6.16073603       18       0.01919678      -0.01968151       0.01018709
H        0.70065483      -0.86930481       4.32344242       19      -0.02583048      -0.00920638      -0.01018506
H        6.70550784       1.64682866       0.87879114       20       0.01323274       0.01213513      -0.02308456
H       -5.84629404       2.06153966       9.60538593       21      -0.00653595       0.01672568       0.02309462
H        5.84422537      -1.89389611       9.56553024       22      -0.01918982       0.01966928      -0.01017771
H       -5.53330302       3.23578383       0.91864627       23       0.02584155       0.00921567       0.01018931
H        0.25118892       0.51320651       1.94904363       24      -0.01400507      -0.01703853      -0.02868782
H       -0.54820846      -1.79509606       8.53513266       25       0.00518247      -0.02145654       0.02868152
H       -2.80824660       2.46883415       5.11321221       26      -0.03240801      -0.01272096       0.00990936
H       -6.60574339       3.34870703       5.37096440       27       0.02347670      -0.02566548      -0.00992753
H       -5.08383701       1.85327247       3.29304511       28       0.01400418       0.01703829       0.02868899
H       -4.83274949       1.79509621       7.19113350       29      -0.00520900       0.02144478      -0.02866553
H       -0.92778153       4.63060280       0.12887635       30       0.03240956       0.01272207      -0.00991034
H        2.32140525       1.38425107      10.35530181       31      -0.02347605       0.02567146       0.00991856
C       -0.12855714       1.44666454       3.84724418       32      -0.06474271      -0.02297507       0.02711013
C        0.20337420      -1.12376650       6.63693319       33       0.04808287      -0.04911447      -0.02706113
C       -0.77313051       2.84277399       5.69386796       34       0.01803452      -0.04222174       0.05795795
C        1.39625477      -0.15339355       4.79030936       35      -0.03474364      -0.02991071      -0.05791879
C        6.05782527       0.91981443       1.39484460       36       0.06475914       0.02297467      -0.02710587
C       -5.58433221       1.12376665       9.08933300       37      -0.04809106       0.04911280       0.02707800
C       -3.51120742       1.89018399      10.03239815       38      -0.01806927       0.04223099      -0.05796470
C        4.53301351       2.51987246       0.45177955       39       0.03474507       0.02992377       0.05791014
C       -0.32629464       1.35816529       2.34320610       40       0.01375806       0.00373787      -0.01267422
C        0.34204071      -1.29021281       8.14097362       41      -0.01071794       0.00946942       0.01263817
C       -2.26788798       3.05478920       5.86652618       42      -0.01084389       0.00948744      -0.01263925
C        2.83194262      -0.62035932       4.61765399       43       0.01386523       0.00375885       0.01261387
C        6.25556282       1.00831377       2.89888265       44      -0.01376683      -0.00373818       0.01266629
C       -5.72299918       1.29021260       7.58529265       45       0.01074426      -0.00945076      -0.01267865
C       -2.01645026       1.67816877       9.85974053       46       0.01086622      -0.00949158       0.01260926
C        3.09732573       2.98683832       0.62443475       47      -0.01388385      -0.00375852      -0.01259663
O       -0.42617556       2.75832689       4.28195552       48      -0.00160981      -0.01560132      -0.00606912
O        1.04750942      -0.07664207       6.20222130       49      -0.00535135      -0.01474468       0.00606431
O       -1.17299330      -0.80891944       6.27987374       50      -0.00940089      -0.01381604      -0.00193593
O        1.24603231       1.12411994       4.20430307       51       0.00225661      -0.01656918       0.00193498
O       -3.30985252       4.34111018       0.96013315       52       0.00160923       0.01560177       0.00605895
O        4.33344870       0.07664205       9.52404498       53       0.00535041       0.01474263      -0.00606680
O       -4.20796491       0.80891948       9.44639258       54       0.00941863       0.01382466       0.00193547
O        4.68323600       1.24235915       1.03778562       55      -0.00226654       0.01654613      -0.00193204
