32
Lattice="6.17176593 0.0 0.0 0.0 8.01859859 0.0 0.0 0.0 13.03281824" Properties=species:S:1:pos:R:3:spacegroup_kinds:I:1:forces:R:3 spacegroup="P 1" unit_cell=conventional occupancy="_JSON {\"0\": {\"Li\": 1}, \"1\": {\"Li\": 1}, \"2\": {\"Li\": 1}, \"3\": {\"Li\": 1}, \"4\": {\"Li\": 1}, \"5\": {\"Li\": 1}, \"6\": {\"Li\": 1}, \"7\": {\"Li\": 1}, \"8\": {\"Li\": 1}, \"9\": {\"Li\": 1}, \"10\": {\"Li\": 1}, \"11\": {\"Li\": 1}, \"12\": {\"P\": 1}, \"13\": {\"P\": 1}, \"14\": {\"P\": 1}, \"15\": {\"P\": 1}, \"16\": {\"S\": 1}, \"17\": {\"S\": 1}, \"18\": {\"S\": 1}, \"19\": {\"S\": 1}, \"20\": {\"S\": 1}, \"21\": {\"S\": 1}, \"22\": {\"S\": 1}, \"23\": {\"S\": 1}, \"24\": {\"S\": 1}, \"25\": {\"S\": 1}, \"26\": {\"S\": 1}, \"27\": {\"S\": 1}, \"28\": {\"S\": 1}, \"29\": {\"S\": 1}, \"30\": {\"S\": 1}, \"31\": {\"S\": 1}}" energy=-140.34629821777344 free_energy=-140.34629821777344 stress="-0.0028886303771287203 -8.946989815683537e-09 2.887911576543445e-10 -8.946989815683537e-09 -0.004072247073054314 7.125969592181036e-09 2.887911576543445e-10 7.125969592181036e-09 -0.0025935841258615255" pbc="T T T"
Li       2.40166814       0.26892254       4.33377960        0      -0.01549025       0.00236111       0.00063358
Li       3.77009790       7.74967593       8.69903842        1       0.01548925      -0.00235857      -0.00063387
Li       5.48755107       7.74967605       2.18262936        2      -0.01549312      -0.00236148      -0.00063151
Li       0.68421476       0.26892248      10.85018872        3       0.01549093       0.00236047       0.00063113
Li       3.77009793       4.27822190       8.69903846        4       0.01548848       0.00235803      -0.00063421
Li       2.40166815       3.74037680       4.33377963        5      -0.01548955      -0.00235972       0.00063538
Li       0.68421480       3.74037683      10.85018871        6       0.01549090      -0.00236111       0.00063127
Li       5.48755105       4.27822188       2.18262941        7      -0.01549239       0.00236077      -0.00063001
Li       3.08588297      -0.00000009       0.00000008        8      -0.00000192       0.00000037       0.00000225
Li      -0.00000002       0.00000002       6.51640923        9       0.00000052       0.00000151      -0.00000106
Li       3.08588288       4.00929941       0.00000009       10       0.00000045      -0.00000025      -0.00000087
Li       0.00000003       4.00929936       6.51640923       11       0.00000045      -0.00000256      -0.00000130
P        0.93932955       2.00464994       1.16793476       12      -0.00066616      -0.00001166       0.03303421
P        5.23243628       6.01394905      11.86488427       13       0.00066359       0.00000069      -0.03306069
P        4.02521221       6.01394897       5.34847537       14      -0.00064949       0.00000016      -0.03306339
P        2.14655386       2.00464953       7.68434322       15       0.00065410       0.00000042       0.03305280
S        5.07612362       2.00464956       1.30682511       16       0.00280204       0.00000011       0.01275002
S        1.09564232       6.01394905      11.72599291       17      -0.00280197      -0.00000054      -0.01274706
S        1.99024097       6.01394896       5.20958390       18       0.00279121      -0.00000063      -0.01274452
S        4.18152506       2.00464965       7.82323412       19      -0.00279302      -0.00000155       0.01274841
S        1.68772172       2.00464958      12.25093563       20       0.03396951       0.00000154       0.02524984
S        4.48404416       6.01394900       0.78188248       21      -0.03397296       0.00000042      -0.02523610
S        4.77360473       6.01394895       7.29829154       22       0.03397275       0.00000050      -0.02523541
S        1.39816133       2.00464963       5.73452694       23      -0.03397363      -0.00000014       0.02524082
S        1.68016701       0.28147962       2.00960388       24       0.02273063      -0.00258572      -0.01692298
S        4.49159900       7.73711899      11.02321421       25      -0.02272875       0.00258727       0.01692480
S        4.76604991       7.73711922       4.50680503       26       0.02272964       0.00258271       0.01692946
S        1.40571579       0.28147958       8.52601314       27      -0.02272758      -0.00258515      -0.01692837
S        4.49159898       4.29077862      11.02321409       28      -0.02272900      -0.00258474       0.01692481
S        1.68016704       3.72781941       2.00960384       29       0.02273463       0.00259414      -0.01691827
S        1.40571577       3.72781977       8.52601308       30      -0.02272753       0.00258501      -0.01692739
S        4.76604996       4.29077864       4.50680510       31       0.02272817      -0.00258137       0.01692819
