4
Lattice="3.128588 0.0 0.0 -1.5642939988088433 2.709436998432005 0.0 0.0 0.0 5.016955" Properties=species:S:1:pos:R:3:spacegroup_kinds:I:1:momenta:R:3:forces:R:3 spacegroup="P 1" unit_cell=conventional occupancy="_JSON {\"0\": {\"Al\": 1}, \"1\": {\"Al\": 1}, \"2\": {\"N\": 1}, \"3\": {\"N\": 1}}" energy=-29.623743057250977 free_energy=-29.623743057250977 stress="0.004300492350012064 -0.00867251493036747 0.0028819050639867783 -0.00867251493036747 -0.00694337347522378 -0.0044345976784825325 0.0028819050639867783 -0.0044345976784825325 -0.014839231967926025" pbc="T T T"
Al       1.54321205       0.89379623       2.53645981        0      -0.00705468      -0.41529111       0.79444968      -0.25249946       0.39303046      -0.87834656
Al       0.03580900       1.79893947       4.98957808        1       0.09337859      -0.29525165      -0.61191910      -0.16601375       0.14058387       0.62745380
N        1.59619752       0.90645093       4.40111845        2      -0.02189749       1.09350735       0.27120864      -0.08899544      -0.09593962       0.34910965
N       -0.05911259       1.83464212       1.91219261        3      -0.06442641      -0.38296460      -0.45373928       0.50750870      -0.43767470      -0.09821665
