4
Lattice="3.128588 0.0 0.0 -1.5642939988088433 2.709436998432005 0.0 0.0 0.0 5.016955" Properties=species:S:1:pos:R:3:spacegroup_kinds:I:1:momenta:R:3:forces:R:3 spacegroup="P 1" unit_cell=conventional occupancy="_JSON {\"0\": {\"Al\": 1}, \"1\": {\"Al\": 1}, \"2\": {\"N\": 1}, \"3\": {\"N\": 1}}" energy=-29.673717498779297 free_energy=-29.673717498779297 stress="-0.002225266769528389 -1.3799847238260554e-06 -3.5644855955752064e-08 -1.3799847238260554e-06 -0.0022275263909250498 -2.82508914040136e-08 -3.5644855955752064e-08 -2.82508914040136e-08 -0.00545364199206233" pbc="T T T"
Al       1.56429556       0.90314476       2.50490041        0       0.68448204       0.53670047       0.91071479      -0.00003432       0.00002105       0.00553287
Al      -0.00000156       1.80629224       5.01337791        1       0.31075784       0.39520501      -1.87833745       0.00003538      -0.00002033       0.00552318
N        1.56429556       0.90314476       4.41849749        2      -0.23293981      -0.79739853      -0.40745139      -0.00003729       0.00002089      -0.00553015
N       -0.00000156       1.80629224       1.91001999        3      -0.76230006      -0.13450696       1.37507406       0.00003613      -0.00002181      -0.00552609
4
Lattice="3.128588 0.0 0.0 -1.5642939988088433 2.709436998432005 0.0 0.0 0.0 5.016955" Properties=species:S:1:pos:R:3:spacegroup_kinds:I:1:momenta:R:3:forces:R:3 spacegroup="P 1" unit_cell=conventional occupancy="_JSON {\"0\": {\"Al\": 1}, \"1\": {\"Al\": 1}, \"2\": {\"N\": 1}, \"3\": {\"N\": 1}}" energy=-29.43359375 free_energy=-29.43359375 stress="-0.013773354701697826 -0.016446346417069435 0.012948818504810333 -0.016446346417069435 -0.023968901485204697 0.009969793260097504 0.012948818504810333 0.009969793260097504 -0.012059370055794716" pbc="T T T"
Al       1.60246141       0.92231284       2.54150849        0       0.57498207      -0.13491980       1.02882482      -1.31301367      -0.49033540      -0.87831306
Al       0.00328788       1.81111139       4.94718774        1      -0.44725814       0.00118035      -1.07867309      -0.30154264      -0.59423363       1.18011916
N        1.53678588       0.85870780       4.38099594        2       0.14052045      -0.46066706       0.20203859       0.28490859       0.67984641       1.25553679
N       -0.05228245       1.80432670       2.00436659        3      -0.26824441       0.59440649      -0.15219040       1.32964742       0.40472248      -1.55734277
4
Lattice="3.128588 0.0 0.0 -1.5642939988088433 2.709436998432005 0.0 0.0 0.0 5.016955" Properties=species:S:1:pos:R:3:spacegroup_kinds:I:1:momenta:R:3:forces:R:3 spacegroup="P 1" unit_cell=conventional occupancy="_JSON {\"0\": {\"Al\": 1}, \"1\": {\"Al\": 1}, \"2\": {\"N\": 1}, \"3\": {\"N\": 1}}" energy=-29.567256927490234 free_energy=-29.567256927490234 stress="0.012915825471282005 0.0017025376437231898 0.003579346463084221 0.0017025376437231898 -0.025857016444206238 -0.005369143094867468 0.003579346463084221 -0.005369143094867468 -0.011435097083449364" pbc="T T T"
Al       1.59598185       0.90138486       2.55101265        0      -0.85003981      -0.64755189      -0.41676302      -0.33522722       0.74370390      -1.26921153
Al      -0.01311800       1.79082858       4.96769658        1      -0.24557016      -0.74327762       1.65595784      -0.18280092      -0.17026798       1.21499634
N        1.52960408       0.86779352       4.41996341        2       0.16413049       0.60763560       0.63654558       0.31887579       0.39321440      -0.09056953
N       -0.00060094       1.87475188       1.90756519        3       0.93147942       0.78319392      -1.87574045       0.19915241      -0.96665001       0.14478455
4
Lattice="3.128588 0.0 0.0 -1.5642939988088433 2.709436998432005 0.0 0.0 0.0 5.016955" Properties=species:S:1:pos:R:3:spacegroup_kinds:I:1:momenta:R:3:forces:R:3 spacegroup="P 1" unit_cell=conventional occupancy="_JSON {\"0\": {\"Al\": 1}, \"1\": {\"Al\": 1}, \"2\": {\"N\": 1}, \"3\": {\"N\": 1}}" energy=-29.406274795532227 free_energy=-29.406274795532227 stress="0.010688548907637596 0.016498230397701263 -0.008164074271917343 0.016498230397701263 -0.009423305280506611 -0.015553916804492474 -0.008164074271917343 -0.015553916804492474 -0.061254117637872696" pbc="T T T"
Al       1.53423928       0.87298460       2.51007452        0      -1.60925375       0.09619199      -1.03262289       0.74608976       1.00298381       0.03482404
Al      -0.01349004       1.78470222       5.05709164        1       0.21561193      -0.04339795       1.72443232       0.02271372       0.40732902      -1.66436911
N        1.55208973       0.92225132       4.42203507        2       0.38659420       0.63935798      -0.93002931       0.04495621      -0.39009708      -0.56986165
N        0.09667398       1.88681818       1.81230438        3       1.00704759      -0.69215205       0.23821984      -0.81375968      -1.02021587       2.19940662
4
Lattice="3.128588 0.0 0.0 -1.5642939988088433 2.709436998432005 0.0 0.0 0.0 5.016955" Properties=species:S:1:pos:R:3:spacegroup_kinds:I:1:momenta:R:3:forces:R:3 spacegroup="P 1" unit_cell=conventional occupancy="_JSON {\"0\": {\"Al\": 1}, \"1\": {\"Al\": 1}, \"2\": {\"N\": 1}, \"3\": {\"N\": 1}}" energy=-29.201902389526367 free_energy=-29.201902389526367 stress="-0.026440832763910294 0.03815522789955139 -0.03138263523578644 0.03815522789955139 -0.004877444822341204 0.0015437204856425524 -0.03138263523578644 0.0015437204856425524 -0.05181988701224327" pbc="T T T"
Al       1.49382402       0.87740191       2.48150489        0      -0.08661639      -0.02748813       0.25595525       2.48428202      -0.46186361       1.22611666
Al      -0.02076738       1.79337852       5.08843293        1       0.00716718       0.60209069      -1.27068299       0.64723295       0.57433426      -2.36004066
N        1.60157222       0.96971682       4.33361322        2       0.49437272       0.53651013      -0.17473316      -0.53882629      -0.70145249       1.74608862
N        0.13924908       1.81421456       1.89535166        3      -0.41492348      -1.11111275       1.18946088      -2.59268856       0.58898187      -0.61216468
4
Lattice="3.128588 0.0 0.0 -1.5642939988088433 2.709436998432005 0.0 0.0 0.0 5.016955" Properties=species:S:1:pos:R:3:spacegroup_kinds:I:1:momenta:R:3:forces:R:3 spacegroup="P 1" unit_cell=conventional occupancy="_JSON {\"0\": {\"Al\": 1}, \"1\": {\"Al\": 1}, \"2\": {\"N\": 1}, \"3\": {\"N\": 1}}" energy=-29.574628829956055 free_energy=-29.574628829956055 stress="-0.02361788973212242 -0.014321347698569298 -0.011127996258437634 -0.014321347698569298 0.01503004226833582 -0.0028546501416713 -0.011127996258437634 -0.0028546501416713 -0.014440232887864113" pbc="T T T"
Al       1.53421961       0.88369268       2.53780583        0       1.55944030       0.36820893       1.55971059       0.29264486      -0.24000658      -0.91367686
Al      -0.00048008       1.82107764       4.98837339        1       1.01688598       0.86374294      -2.47525466       0.94369650       0.52251589       0.78486383
N        1.63583965       0.96584647       4.40663187        2      -0.31021939      -0.52489302       1.27117339      -1.15103877      -0.78907120       0.05687937
N       -0.01177516       1.75252284       1.90648729        3      -2.26610691      -0.70705896      -0.35562935      -0.08530261       0.50656164       0.07193383
4
Lattice="3.128588 0.0 0.0 -1.5642939988088433 2.709436998432005 0.0 0.0 0.0 5.016955" Properties=species:S:1:pos:R:3:spacegroup_kinds:I:1:momenta:R:3:forces:R:3 spacegroup="P 1" unit_cell=conventional occupancy="_JSON {\"0\": {\"Al\": 1}, \"1\": {\"Al\": 1}, \"2\": {\"N\": 1}, \"3\": {\"N\": 1}}" energy=-29.372072219848633 free_energy=-29.372072219848633 stress="-0.0056296903640031815 -0.018719462677836418 0.0158493984490633 -0.018719462677836418 -0.03227325156331062 0.01721222698688507 0.0158493984490633 0.01721222698688507 -0.007298042997717857" pbc="T T T"
Al       1.57072834       0.88046442       2.56331977        0      -0.00039174      -0.37629456      -0.57844092      -1.34386420      -0.44065675      -1.50707579
Al       0.05055071       1.86456080       4.94968567        1       0.52727031       0.77034112       1.04960222      -0.49128735      -1.36433887       1.82584691
N        1.58204796       0.88176658       4.44992390        2      -0.27832260      -1.02263352      -0.55459292       0.15003431       1.16376328      -0.85894811
N       -0.12661082       1.75915457       1.88869868        3      -0.24855600       0.62858692       0.08343160       1.68511724       0.64123231       0.54017711
4
Lattice="3.128588 0.0 0.0 -1.5642939988088433 2.709436998432005 0.0 0.0 0.0 5.016955" Properties=species:S:1:pos:R:3:spacegroup_kinds:I:1:momenta:R:3:forces:R:3 spacegroup="P 1" unit_cell=conventional occupancy="_JSON {\"0\": {\"Al\": 1}, \"1\": {\"Al\": 1}, \"2\": {\"N\": 1}, \"3\": {\"N\": 1}}" energy=-29.596923828125 free_energy=-29.596923828125 stress="0.01597631350159645 -0.004505967255681753 0.006018617656081915 -0.004505967255681753 -0.02549945004284382 -0.004597151186317205 0.006018617656081915 -0.004597151186317205 -0.010013967752456665" pbc="T T T"
Al       1.53284809       0.86390067       2.51395076        0      -1.59464497      -0.16469664      -1.74991395      -0.27820551       0.89915812      -0.15420464
Al       0.06317842       1.83227863       5.00948379        1       0.38440013      -1.80666664       1.59450000      -0.58708310      -0.41271544       0.16725041
N        1.58572474       0.89623787       4.41422574        2       0.14193203       1.12964986      -0.09119166       0.25703996       0.38076544       0.00228093
N       -0.08152109       1.83862420       1.90381447        3       1.06831277       0.84171335       0.24660563       0.60824865      -0.86720800      -0.01532672
4
Lattice="3.128588 0.0 0.0 -1.5642939988088433 2.709436998432005 0.0 0.0 0.0 5.016955" Properties=species:S:1:pos:R:3:spacegroup_kinds:I:1:momenta:R:3:forces:R:3 spacegroup="P 1" unit_cell=conventional occupancy="_JSON {\"0\": {\"Al\": 1}, \"1\": {\"Al\": 1}, \"2\": {\"N\": 1}, \"3\": {\"N\": 1}}" energy=-29.462553024291992 free_energy=-29.462553024291992 stress="-0.005697053391486406 0.01084938459098339 -0.003906636498868465 0.01084938459098339 -0.019133787602186203 -0.01270315796136856 -0.003906636498868465 -0.01270315796136856 -0.011871404014527798" pbc="T T T"
Al       1.48347331       0.88264395       2.44527926        0      -0.30454613       1.01149529      -0.60004587       0.88393176       0.95768398       1.70776951
Al       0.06164409       1.77681256       5.07306073        1      -0.86715270      -0.75617402       0.43048958      -0.30080611       0.71655512      -1.72279978
N        1.61717713       0.94947187       4.40498427        2       0.38645915       0.04830085       0.18623325      -0.07234053      -0.67486155       0.48910740
N       -0.01486936       1.85626148       1.92266700        3       0.78523963      -0.30362224      -0.01667699      -0.51078510      -0.99937731      -0.47407734
4
Lattice="3.128588 0.0 0.0 -1.5642939988088433 2.709436998432005 0.0 0.0 0.0 5.016955" Properties=species:S:1:pos:R:3:spacegroup_kinds:I:1:momenta:R:3:forces:R:3 spacegroup="P 1" unit_cell=conventional occupancy="_JSON {\"0\": {\"Al\": 1}, \"1\": {\"Al\": 1}, \"2\": {\"N\": 1}, \"3\": {\"N\": 1}}" energy=-29.51875114440918 free_energy=-29.51875114440918 stress="-0.02337084896862507 0.0065398686565458775 -0.0160982608795166 0.0065398686565458775 0.006697408854961395 -0.00048239892930723727 -0.0160982608795166 -0.00048239892930723727 -0.022161239758133888" pbc="T T T"
Al       1.50607635       0.94974319       2.46463694        0       1.15921268       0.62635187       1.50689955       1.24247336      -0.60704648       1.15697348
Al       0.01335470       1.75088037       5.06242874        1      -0.91111974       0.14825315      -0.88962687       0.51474839       0.69610548      -1.43088794
N        1.62637962       0.90489620       4.42127859        2      -0.14223565      -0.64065108       0.21498387      -0.71772051      -0.51824105      -0.07984980
N        0.02538010       1.82158365       1.88963025        3      -0.10585731      -0.13395403      -0.83225661      -1.03950131       0.42918202       0.35376427
4
Lattice="3.128588 0.0 0.0 -1.5642939988088433 2.709436998432005 0.0 0.0 0.0 5.016955" Properties=species:S:1:pos:R:3:spacegroup_kinds:I:1:momenta:R:3:forces:R:3 spacegroup="P 1" unit_cell=conventional occupancy="_JSON {\"0\": {\"Al\": 1}, \"1\": {\"Al\": 1}, \"2\": {\"N\": 1}, \"3\": {\"N\": 1}}" energy=-29.60500717163086 free_energy=-29.60500717163086 stress="0.0015956229763105512 -0.006785913370549679 -0.0030955520924180746 -0.006785913370549679 0.00178033288102597 0.001724274130538106 -0.0030955520924180746 0.001724274130538106 -0.023113513365387917" pbc="T T T"
Al       1.56693921       0.93861029       2.54470910        0       1.44875368      -0.98943828       1.48437421      -0.01659203      -0.29131702      -1.20300925
Al      -0.01304568       1.78057345       4.99752450        1       0.01689834       1.11024958      -1.70730043       0.38438565       0.02358158       0.50760603
N        1.58384203       0.87104967       4.42155574        2      -0.67927502      -0.02704949      -0.19037170      -0.39236918       0.15177888      -0.39792526
N        0.00122214       1.81989281       1.85992052        3      -0.78637703      -0.09376188       0.41329788       0.02457550       0.11595660       1.09332848
4
Lattice="3.128588 0.0 0.0 -1.5642939988088433 2.709436998432005 0.0 0.0 0.0 5.016955" Properties=species:S:1:pos:R:3:spacegroup_kinds:I:1:momenta:R:3:forces:R:3 spacegroup="P 1" unit_cell=conventional occupancy="_JSON {\"0\": {\"Al\": 1}, \"1\": {\"Al\": 1}, \"2\": {\"N\": 1}, \"3\": {\"N\": 1}}" energy=-29.470205307006836 free_energy=-29.470205307006836 stress="0.0032034562900662422 -0.017801621928811073 0.011838297359645367 -0.017801621928811073 -0.041349146515131 0.0073599740862846375 0.011838297359645367 0.0073599740862846375 -0.005160200409591198" pbc="T T T"
Al       1.62755626       0.89950079       2.54516753        0       1.04970789      -0.99981833      -0.80202931      -1.41064739       0.15933274      -0.91779095
Al      -0.00757055       1.81703569       4.95606282        1      -0.03758012       0.11959815      -0.16512772      -0.26242509      -0.84351814       1.41445684
N        1.52756232       0.85151203       4.42065484        2      -0.42752178       0.29023083      -0.07965750       0.31765610       0.98894906      -0.00115405
N       -0.06966668       1.84442112       1.93994535        3      -0.58460602       0.58998933       1.04681454       1.35541654      -0.30476338      -0.49551195
4
Lattice="3.128588 0.0 0.0 -1.5642939988088433 2.709436998432005 0.0 0.0 0.0 5.016955" Properties=species:S:1:pos:R:3:spacegroup_kinds:I:1:momenta:R:3:forces:R:3 spacegroup="P 1" unit_cell=conventional occupancy="_JSON {\"0\": {\"Al\": 1}, \"1\": {\"Al\": 1}, \"2\": {\"N\": 1}, \"3\": {\"N\": 1}}" energy=-29.452987670898438 free_energy=-29.452987670898438 stress="-0.013225475326180458 -0.02375020831823349 0.00791148841381073 -0.02375020831823349 -0.047931887209415436 -0.0073333983309566975 0.00791148841381073 -0.0073333983309566975 0.02863292582333088" pbc="T T T"
Al       1.63184038       0.85684030       2.46693549        0      -0.97589053      -0.55899547      -1.34838389      -1.39010024       1.11026287       1.17303896
Al      -0.02377746       1.82170277       4.98999598        1      -0.28018895       0.45883516       1.28013536      -0.08532734       0.08283913       0.34697157
N        1.52792702       0.92957751       4.44479004        2       0.11446521       0.97873237       0.08012586       0.22036237      -0.17399275       0.05598724
N       -0.04718870       1.83921499       2.00086009        3       1.14161430      -0.87857204      -0.01187738       1.25506496      -1.01910925      -1.57599747
4
Lattice="3.128588 0.0 0.0 -1.5642939988088433 2.709436998432005 0.0 0.0 0.0 5.016955" Properties=species:S:1:pos:R:3:spacegroup_kinds:I:1:momenta:R:3:forces:R:3 spacegroup="P 1" unit_cell=conventional occupancy="_JSON {\"0\": {\"Al\": 1}, \"1\": {\"Al\": 1}, \"2\": {\"N\": 1}, \"3\": {\"N\": 1}}" energy=-29.53631591796875 free_energy=-29.53631591796875 stress="-0.01985754445195198 0.013829062692821026 -0.0057174405083060265 0.013829062692821026 -0.0031641959212720394 -0.0016710242489352822 -0.0057174405083060265 -0.0016710242489352822 -0.006260679569095373" pbc="T T T"
Al       1.56291506       0.86348348       2.43836896        0      -1.44558829       0.38889084       0.34074970       0.67286015       0.11609553       1.45909595
Al      -0.01834144       1.83613133       5.05736568        1       0.19731514      -0.00921523       1.04742102       0.06595195       0.15003651      -1.19267356
N        1.54726701       0.95741146       4.47045643        2      -0.01024023       0.05684981       0.14844052       0.09761482      -0.44420946      -0.65174776
N        0.05576968       1.77068663       1.90062727        3       1.25851340      -0.43652547      -1.53661128      -0.83642685       0.17807743       0.38532537
4
Lattice="3.128588 0.0 0.0 -1.5642939988088433 2.709436998432005 0.0 0.0 0.0 5.016955" Properties=species:S:1:pos:R:3:spacegroup_kinds:I:1:momenta:R:3:forces:R:3 spacegroup="P 1" unit_cell=conventional occupancy="_JSON {\"0\": {\"Al\": 1}, \"1\": {\"Al\": 1}, \"2\": {\"N\": 1}, \"3\": {\"N\": 1}}" energy=-29.531002044677734 free_energy=-29.531002044677734 stress="-0.018293973058462143 0.01570787839591503 -0.011607762426137924 0.01570787839591503 0.0031476153526455164 0.004605791065841913 -0.011607762426137924 0.004605791065841913 -0.017258943989872932" pbc="T T T"
Al       1.54701074       0.87273544       2.46070915        0       0.71855770      -0.11584406       0.49435401       1.07476544      -0.28505683       1.06925821
Al      -0.01761627       1.84389392       5.05391117        1       0.19346487       0.17720460      -0.69190197       0.23187679      -0.07942115      -1.16825449
N        1.56395351       0.94331115       4.45961399        2       0.32487367      -0.12409471      -0.51346234      -0.11546996      -0.20503268      -0.72920167
N        0.06831351       1.75176770       1.87546338        3      -1.23689623       0.06273412       0.71101029      -1.19117236       0.56951034       0.82819843
4
Lattice="3.128588 0.0 0.0 -1.5642939988088433 2.709436998432005 0.0 0.0 0.0 5.016955" Properties=species:S:1:pos:R:3:spacegroup_kinds:I:1:momenta:R:3:forces:R:3 spacegroup="P 1" unit_cell=conventional occupancy="_JSON {\"0\": {\"Al\": 1}, \"1\": {\"Al\": 1}, \"2\": {\"N\": 1}, \"3\": {\"N\": 1}}" energy=-29.61321258544922 free_energy=-29.61321258544922 stress="-0.008381838910281658 -0.004276697523891926 0.005492875352501869 -0.004276697523891926 -0.013937161304056644 0.0014804551610723138 0.005492875352501869 0.0014804551610723138 0.012475269846618176" pbc="T T T"
Al       1.57767909       0.87033377       2.48321566        0       0.42145866      -0.10085962       0.75449398      -0.50598633       0.14215371       0.64867735
Al       0.00878683       1.84488736       5.00616575        1       0.94842548       0.04829565      -0.67234610      -0.28190854      -0.37569639       0.05942814
N        1.54733732       0.91884307       4.41695257        2      -0.50233602      -0.06173747      -0.86681685       0.26756641       0.16352430       0.34766698
N       -0.02491944       1.77881446       1.96659667        3      -0.86754813       0.11430139       0.78466896       0.52032852       0.07001852      -1.05577219
4
Lattice="3.128588 0.0 0.0 -1.5642939988088433 2.709436998432005 0.0 0.0 0.0 5.016955" Properties=species:S:1:pos:R:3:spacegroup_kinds:I:1:momenta:R:3:forces:R:3 spacegroup="P 1" unit_cell=conventional occupancy="_JSON {\"0\": {\"Al\": 1}, \"1\": {\"Al\": 1}, \"2\": {\"N\": 1}, \"3\": {\"N\": 1}}" energy=-29.557842254638672 free_energy=-29.557842254638672 stress="-0.01636357605457306 -0.0029474322218447924 0.012903747148811817 -0.0029474322218447924 -0.00620740232989192 0.0015375990187749267 0.012903747148811817 0.0015375990187749267 -0.0027149501256644726" pbc="T T T"
Al       1.59068813       0.88023432       2.52274586        0      -0.41625592       0.17887127       0.33160726      -0.90884149      -0.14030682      -0.36868253
Al       0.01872292       1.83477372       4.97781991        1       0.14973893      -0.20763027      -0.17578441      -0.72829819      -0.10046154       0.72653109
N        1.52039169       0.92489995       4.39464372        2       0.19754464       0.25939866       0.47781777       0.72476077      -0.09605069       0.71573865
N       -0.04216865       1.77342023       1.96745698        3       0.06897236      -0.23063970      -0.63364067       0.91237885       0.33681911      -1.07358718
4
Lattice="3.128588 0.0 0.0 -1.5642939988088433 2.709436998432005 0.0 0.0 0.0 5.016955" Properties=species:S:1:pos:R:3:spacegroup_kinds:I:1:momenta:R:3:forces:R:3 spacegroup="P 1" unit_cell=conventional occupancy="_JSON {\"0\": {\"Al\": 1}, \"1\": {\"Al\": 1}, \"2\": {\"N\": 1}, \"3\": {\"N\": 1}}" energy=-29.621110916137695 free_energy=-29.621110916137695 stress="-0.0215007197111845 0.005276526790112257 -0.0032675028778612614 0.005276526790112257 0.01065762247890234 0.0019249103497713804 -0.0032675028778612614 0.0019249103497713804 -0.0015896438853815198" pbc="T T T"
Al       1.54767649       0.89587766       2.50832856        0      -0.85810014       0.46896507      -1.00003072       0.39160550      -0.39029092      -0.15032482
Al       0.00665800       1.82067511       5.00342497        1      -0.72966974      -0.11082625       1.46536791      -0.00949417       0.22696683       0.34862947
N        1.57185934       0.94293295       4.45440720        2       0.62349866      -0.37686558       0.64593220      -0.01970198      -0.43335083      -0.83890057
N        0.01256033       1.75229416       1.88600532        3       0.96427121       0.01872677      -1.11126944      -0.36240932       0.59667504       0.64059615
4
Lattice="3.128588 0.0 0.0 -1.5642939988088433 2.709436998432005 0.0 0.0 0.0 5.016955" Properties=species:S:1:pos:R:3:spacegroup_kinds:I:1:momenta:R:3:forces:R:3 spacegroup="P 1" unit_cell=conventional occupancy="_JSON {\"0\": {\"Al\": 1}, \"1\": {\"Al\": 1}, \"2\": {\"N\": 1}, \"3\": {\"N\": 1}}" energy=-29.520854949951172 free_energy=-29.520854949951172 stress="-0.014047394506633282 0.011820964515209198 -0.014255616813898087 0.011820964515209198 -0.005614782217890024 0.009361453354358673 -0.014255616813898087 0.009361453354358673 -0.019570928066968918" pbc="T T T"
Al       1.52999429       0.91403919       2.46474569        0       0.09545119      -0.23101303      -1.18071354       1.21875429      -0.63577211       0.99289864
Al      -0.00890656       1.82180731       5.05208968        1       0.31216957      -0.10747412       0.45537669       0.39472777      -0.38378498      -1.12710309
N        1.59437712       0.88605546       4.45928985        2      -0.04799089      -0.53350382      -0.20523325      -0.40810657       0.35579032      -0.79021633
N        0.05384449       1.77207218       1.87144997        3      -0.35962985       0.87199097       0.93057005      -1.20537543       0.66376662       0.92442012
4
Lattice="3.128588 0.0 0.0 -1.5642939988088433 2.709436998432005 0.0 0.0 0.0 5.016955" Properties=species:S:1:pos:R:3:spacegroup_kinds:I:1:momenta:R:3:forces:R:3 spacegroup="P 1" unit_cell=conventional occupancy="_JSON {\"0\": {\"Al\": 1}, \"1\": {\"Al\": 1}, \"2\": {\"N\": 1}, \"3\": {\"N\": 1}}" energy=-29.61878776550293 free_energy=-29.61878776550293 stress="0.010117908008396626 -0.0018220923375338316 -0.0018730093725025654 -0.0018220923375338316 -0.0247830580919981 0.004591142758727074 -0.0018730093725025654 0.004591142758727074 2.6610068744048476e-05" pbc="T T T"
Al       1.53818035       0.90928018       2.47247629        0       0.23228573      -0.27447295       1.41733352       0.21201092       0.18702391       0.85530770
Al       0.01802692       1.81430741       5.03506517        1       0.60360888      -0.42930321      -1.11140800       0.03760190      -0.69444162      -0.55142611
N        1.59518009       0.85128038       4.42414642        2       0.09084542       0.02420756      -0.77345512      -0.19470316       0.84070480       0.01228349
N       -0.01452984       1.83034440       1.92467360        3      -0.92674002       0.67956860       0.46752960      -0.05490972      -0.33328736      -0.31616500
4
Lattice="3.128588 0.0 0.0 -1.5642939988088433 2.709436998432005 0.0 0.0 0.0 5.016955" Properties=species:S:1:pos:R:3:spacegroup_kinds:I:1:momenta:R:3:forces:R:3 spacegroup="P 1" unit_cell=conventional occupancy="_JSON {\"0\": {\"Al\": 1}, \"1\": {\"Al\": 1}, \"2\": {\"N\": 1}, \"3\": {\"N\": 1}}" energy=-29.623743057250977 free_energy=-29.623743057250977 stress="0.004300492350012064 -0.00867251493036747 0.0028819050639867783 -0.00867251493036747 -0.00694337347522378 -0.0044345976784825325 0.0028819050639867783 -0.0044345976784825325 -0.014839231967926025" pbc="T T T"
Al       1.54321205       0.89379623       2.53645981        0      -0.00705468      -0.41529111       0.79444968      -0.25249946       0.39303046      -0.87834656
Al       0.03580900       1.79893947       4.98957808        1       0.09337859      -0.29525165      -0.61191910      -0.16601375       0.14058387       0.62745380
N        1.59619752       0.90645093       4.40111845        2      -0.02189749       1.09350735       0.27120864      -0.08899544      -0.09593962       0.34910965
N       -0.05911259       1.83464212       1.91219261        3      -0.06442641      -0.38296460      -0.45373928       0.50750870      -0.43767470      -0.09821665
