4
Lattice="3.128588 0.0 0.0 -1.5642939988088433 2.709436998432005 0.0 0.0 0.0 5.016955" Properties=species:S:1:pos:R:3:spacegroup_kinds:I:1:forces:R:3 spacegroup="P 1" unit_cell=conventional occupancy="_JSON {\"0\": {\"Al\": 1}, \"1\": {\"Al\": 1}, \"2\": {\"N\": 1}, \"3\": {\"N\": 1}}" energy=-29.673717498779297 free_energy=-29.673717498779297 stress="-0.002225266769528389 -1.3799847238260554e-06 -3.5644855955752064e-08 -1.3799847238260554e-06 -0.0022275263909250498 -2.82508914040136e-08 -3.5644855955752064e-08 -2.82508914040136e-08 -0.00545364199206233" pbc="T T T"
Al       1.56429556       0.90314476       2.50490041        0      -0.00003432       0.00002105       0.00553287
Al      -0.00000156       1.80629224       5.01337791        1       0.00003538      -0.00002033       0.00552318
N        1.56429556       0.90314476       4.41849749        2      -0.00003729       0.00002089      -0.00553015
N       -0.00000156       1.80629224       1.91001999        3       0.00003613      -0.00002181      -0.00552609
