12
Lattice="4.34051676 0.0 0.0 2.1841485215336385 3.75094401180867 0.0 0.0 0.0 7.06770668" Properties=species:S:1:pos:R:3:spacegroup_kinds:I:1:momenta:R:3:forces:R:3 spacegroup="P 1" unit_cell=conventional occupancy="_JSON {\"0\": {\"H\": 1}, \"1\": {\"H\": 1}, \"2\": {\"H\": 1}, \"3\": {\"H\": 1}, \"4\": {\"H\": 1}, \"5\": {\"H\": 1}, \"6\": {\"H\": 1}, \"7\": {\"H\": 1}, \"8\": {\"O\": 1}, \"9\": {\"O\": 1}, \"10\": {\"O\": 1}, \"11\": {\"O\": 1}}" energy=-59.39505386352539 free_energy=-59.39505386352539 stress="-0.016484441235661507 0.0066912430338561535 -0.0023964308202266693 0.0066912430338561535 -0.005374737549573183 0.004561989568173885 -0.0023964308202266693 0.004561989568173885 -0.013877447694540024" pbc="T T T"
H        2.17726592       1.26646751       4.93850159        0      -0.07835530       0.07715776       0.01491494      -0.06638660       0.00372006      -0.11393449
H        4.35600100       2.44593038       1.44690756        1       0.12867818      -0.09408193       0.09309078      -0.09570575       0.04005881       0.70451343
H        3.03624964       1.70073862       3.63982618        2       0.03783208       0.01510378       0.00243539      -0.57092667      -0.01015215       0.02974307
H        3.51839148       2.08273260       0.12007958        3       0.01828009      -0.00105185       0.00285078      -0.32089734      -0.34574896       0.01846110
H        5.17157538       2.06726609       3.45531253        4       0.14485965      -0.02782078       0.09944158       0.68992841      -0.57554507       0.04977960
H        4.38758183       3.42746790       3.37359173        5      -0.03496196       0.08946294       0.11459969      -0.33854550      -0.33528075      -0.18115389
H        1.38212539       1.66904533       6.95718023        6      -0.06226795       0.02224642       0.04017806      -0.83598995       0.25374514       0.38372579
H        2.22449096       0.29061117       6.90106038        7      -0.02062153       0.05780061      -0.07422322      -0.21410646      -0.29919326       0.44836095
O        2.13894056       1.29121023       3.92814280        8      -0.14794649       0.02997240      -0.09340241       0.86025798      -0.12603198       0.23640923
O        4.34737955       2.50886893       0.46133645        9       0.41829392      -0.05250263       0.55720444       0.54156697       0.21629450      -1.02725816
O        4.35332186       2.45931401       3.05633742       10      -0.08935658       0.20765886      -0.45453619      -0.56355447       1.05460739       0.29553050
O        2.19941985       1.24579263       6.62174260       11      -0.31443408      -0.32394558      -0.30255385       0.91435927       0.12352602      -0.84417713
