12
Lattice="4.34051676 0.0 0.0 2.1841485215336385 3.75094401180867 0.0 0.0 0.0 7.06770668" Properties=species:S:1:pos:R:3:spacegroup_kinds:I:1:momenta:R:3:forces:R:3 spacegroup="P 1" unit_cell=conventional occupancy="_JSON {\"0\": {\"H\": 1}, \"1\": {\"H\": 1}, \"2\": {\"H\": 1}, \"3\": {\"H\": 1}, \"4\": {\"H\": 1}, \"5\": {\"H\": 1}, \"6\": {\"H\": 1}, \"7\": {\"H\": 1}, \"8\": {\"O\": 1}, \"9\": {\"O\": 1}, \"10\": {\"O\": 1}, \"11\": {\"O\": 1}}" energy=-59.48868179321289 free_energy=-59.48868179321289 stress="-0.015848476439714432 -0.00041785291978158057 4.113290685836546e-08 -0.00041785291978158057 -0.015361926518380642 7.475162711045868e-09 4.113290685836546e-08 7.475162711045868e-09 -0.01480897981673479" pbc="T T T"
H        2.19248810       1.26043249       4.95235472        0       0.00000000       0.00000000       0.00000000       0.00408135       0.00234638       0.42520708
H        4.33217718       2.49051152       1.41850138        1       0.00000000       0.00000000       0.00000000      -0.00408086      -0.00234613       0.42522138
H        3.00441086       1.72719618       3.65017592        2       0.00000000       0.00000000       0.00000000       0.36373976       0.20910858      -0.10294212
H        3.52025442       2.02374784       0.11632258        3       0.00000000       0.00000000       0.00000000      -0.36373261      -0.20910525      -0.10294071
H        5.17578010       2.05224878       3.41308348        4       0.00000000       0.00000000       0.00000000       0.36276853      -0.18118869       0.14645718
H        4.37794479       3.44006165       3.41308348        5       0.00000000       0.00000000       0.00000000       0.02596821       0.40467387       0.14645939
H        1.34888518       1.69869523       6.94693682        6       0.00000000       0.00000000       0.00000000      -0.36276898       0.18118832       0.14645739
H        2.14672049       0.31088237       6.94693682        7       0.00000000       0.00000000       0.00000000      -0.02596774      -0.40467405       0.14645953
O        2.18356216       1.25530109       3.95658694        8       0.00000000       0.00000000       0.00000000      -0.35564223      -0.20445332      -0.31444067
O        4.34110312       2.49564292       0.42273360        9       0.00000000       0.00000000       0.00000000       0.35563299       0.20444851      -0.31445575
O        4.35533563       2.50382501       3.07586616       10       0.00000000       0.00000000       0.00000000      -0.40171778      -0.23094805      -0.30074197
O        2.16932965       1.24711900       6.60971950       11       0.00000000       0.00000000       0.00000000       0.40171924       0.23094973      -0.30074096
12
Lattice="4.34051676 0.0 0.0 2.1841485215336385 3.75094401180867 0.0 0.0 0.0 7.06770668" Properties=species:S:1:pos:R:3:spacegroup_kinds:I:1:momenta:R:3:forces:R:3 spacegroup="P 1" unit_cell=conventional occupancy="_JSON {\"0\": {\"H\": 1}, \"1\": {\"H\": 1}, \"2\": {\"H\": 1}, \"3\": {\"H\": 1}, \"4\": {\"H\": 1}, \"5\": {\"H\": 1}, \"6\": {\"H\": 1}, \"7\": {\"H\": 1}, \"8\": {\"O\": 1}, \"9\": {\"O\": 1}, \"10\": {\"O\": 1}, \"11\": {\"O\": 1}}" energy=-59.50794982910156 free_energy=-59.50794982910156 stress="-0.0057880268432199955 0.0005634900298900902 -3.18115962727461e-05 0.0005634900298900902 -0.005888814106583595 -0.0004616284859366715 -3.18115962727461e-05 -0.0004616284859366715 -0.0074033006094396114" pbc="T T T"
H        2.19095186       1.27052363       4.95885095        0       0.00375256       0.05339138       0.07963900       0.01407238      -0.02468912       0.22866425
H        4.34147904       2.48987437       1.42777934        1       0.03010104       0.00086607       0.06459956      -0.07884923      -0.02822015       0.14941013
H        3.01360785       1.73629153       3.64073113        2       0.04067744       0.05715148      -0.07028561      -0.04435997      -0.03271009       0.07890274
H        3.51540454       2.01864712       0.10667700        3      -0.05466663      -0.04850410      -0.04133213      -0.13812149      -0.07957653       0.07091555
H        5.18688291       2.04779332       3.41524609        4       0.06036934      -0.03689380       0.04181652       0.07114983      -0.01836725       0.04771468
H        4.38023754       3.45083343       3.40836036        5       0.03096150       0.08930692       0.00970360       0.02103088       0.10737761       0.08202307
H        1.34249319       1.70185371       6.94962568        6      -0.06307506       0.01596160       0.01978371      -0.15746255       0.07266860       0.06694804
H        2.14276997       0.30004725       6.94496319        7      -0.05126038      -0.07371535      -0.00585199      -0.00506829      -0.08768862       0.05010745
O        2.18188133       1.25516191       3.95672179        8      -0.16052786       0.03814634       0.01043873       0.06473012       0.06402963      -0.32892901
O        4.34089651       2.49513771       0.42354696        9       0.03216891      -0.03459770       0.03700040       0.18106191       0.10183629      -0.21622385
O        4.35531564       2.50283156       3.07551454       10       0.04394639      -0.21537301      -0.07052927      -0.11745580      -0.10561100      -0.10908271
O        2.17003703       1.24795510       6.60939240       11       0.08755273       0.15426016      -0.07498255       0.18927225       0.03095079      -0.12045043
12
Lattice="4.34051676 0.0 0.0 2.1841485215336385 3.75094401180867 0.0 0.0 0.0 7.06770668" Properties=species:S:1:pos:R:3:spacegroup_kinds:I:1:momenta:R:3:forces:R:3 spacegroup="P 1" unit_cell=conventional occupancy="_JSON {\"0\": {\"H\": 1}, \"1\": {\"H\": 1}, \"2\": {\"H\": 1}, \"3\": {\"H\": 1}, \"4\": {\"H\": 1}, \"5\": {\"H\": 1}, \"6\": {\"H\": 1}, \"7\": {\"H\": 1}, \"8\": {\"O\": 1}, \"9\": {\"O\": 1}, \"10\": {\"O\": 1}, \"11\": {\"O\": 1}}" energy=-59.49080276489258 free_energy=-59.49080276489258 stress="0.007834011688828468 0.0011736225569620728 0.00039906345773488283 0.0011736225569620728 0.006884847301989794 0.000794572348240763 0.00039906345773488283 0.000794572348240763 0.0057229576632380486" pbc="T T T"
H        2.19059865       1.27755027       4.97579624        0      -0.01947607      -0.00148752       0.05391439       0.04292328      -0.03172486      -0.26590496
H        4.34849171       2.47885297       1.44148020        1       0.03435537      -0.06307391       0.04092960      -0.10172017       0.00856079      -0.22798544
H        3.01511246       1.74049939       3.62621790        2      -0.02827070      -0.00705365      -0.05676964      -0.20460305      -0.12480454       0.21091986
H        3.49670853       2.00486063       0.09990036        3      -0.05048990      -0.06613785       0.00098374       0.41758817       0.23328263       0.31019735
H        5.19554607       2.03727357       3.42871842        4       0.02446192      -0.03279305       0.07355255      -0.23480225       0.17877632      -0.09950183
H        4.37886094       3.46405985       3.41013561        5      -0.04783387      -0.00200626       0.00503466       0.02463603      -0.36487463      -0.06358648
H        1.32447811       1.70426055       6.95603319        6      -0.04306010       0.00915528       0.02164889       0.27113667      -0.07507879      -0.11913559
H        2.12664033       0.28810361       6.93884459        7      -0.07289954       0.00019587      -0.02282102       0.10814951       0.21972968      -0.03499873
O        2.17940354       1.25754108       3.95669024        8      -0.18981763       0.17212262      -0.02733524       0.20112713       0.13573657       0.05233315
O        4.34205598       2.49482044       0.42349484        9       0.10122778      -0.00292125      -0.05674108      -0.37424999      -0.26276711      -0.10349455
O        4.35619015       2.49929974       3.07439536       10       0.03882987      -0.19889419      -0.11462153       0.17872822       0.18125661       0.16907912
O        2.17280299       1.25077332       6.60916133       11       0.25297288       0.19289389       0.08222464      -0.32891363      -0.09809238       0.17207819
12
Lattice="4.34051676 0.0 0.0 2.1841485215336385 3.75094401180867 0.0 0.0 0.0 7.06770668" Properties=species:S:1:pos:R:3:spacegroup_kinds:I:1:momenta:R:3:forces:R:3 spacegroup="P 1" unit_cell=conventional occupancy="_JSON {\"0\": {\"H\": 1}, \"1\": {\"H\": 1}, \"2\": {\"H\": 1}, \"3\": {\"H\": 1}, \"4\": {\"H\": 1}, \"5\": {\"H\": 1}, \"6\": {\"H\": 1}, \"7\": {\"H\": 1}, \"8\": {\"O\": 1}, \"9\": {\"O\": 1}, \"10\": {\"O\": 1}, \"11\": {\"O\": 1}}" energy=-59.48787307739258 free_energy=-59.48787307739258 stress="0.0045842076651751995 -0.0014782017096877098 0.0005192540702410042 -0.0014782017096877098 0.001614027889445424 0.0006672645686194301 0.0005192540702410042 0.0006672645686194301 0.008164196275174618" pbc="T T T"
H        2.19432586       1.26750109       4.97949643        0       0.02316607      -0.06253555      -0.02306448       0.04270639       0.03409997      -0.41655585
H        4.35712780       2.46845028       1.44512132        1      -0.02359538      -0.00739542      -0.02924363      -0.10170787       0.06782091      -0.36367717
H        2.99927665       1.73419058       3.62336579        2      -0.10103408      -0.03367237       0.03739601       0.13599467       0.06592600       0.09790713
H        3.50062861       1.99719863       0.11200175        3       0.07034166       0.01283868       0.08677996       0.34430316       0.21047492       0.22891441
H        5.19031977       2.03017329       3.43729760        4      -0.08598813      -0.01040234       0.01664170      -0.24213839       0.22771372      -0.12958488
H        4.36819851       3.45040424       3.41192136        5      -0.04371533      -0.06925457       0.01110886       0.07407761      -0.13329560      -0.02180209
H        1.32160038       1.70213338       6.96061650        6       0.04211069      -0.02542680       0.00333487       0.34636313      -0.02514334      -0.18388234
H        2.11321340       0.29560511       6.93079468        7      -0.03177555       0.05487380      -0.02224473       0.19293034       0.04614208       0.02797898
O        2.17659771       1.26009706       3.95515354        8      -0.17296307       0.22328871      -0.07012096      -0.18884899      -0.11462803       0.38683575
O        4.34220366       2.49387920       0.42229582        9      -0.09564235      -0.09510940      -0.09878587      -0.28178525      -0.28841797       0.12604615
O        4.35632148       2.49691615       3.07222798       10       0.01613996      -0.20338117      -0.13303453       0.18706094      -0.09742236       0.10464051
O        2.17726288       1.25457571       6.61248358       11       0.40295555       0.21617644       0.22123276      -0.50895554       0.00672972       0.14317936
12
Lattice="4.34051676 0.0 0.0 2.1841485215336385 3.75094401180867 0.0 0.0 0.0 7.06770668" Properties=species:S:1:pos:R:3:spacegroup_kinds:I:1:momenta:R:3:forces:R:3 spacegroup="P 1" unit_cell=conventional occupancy="_JSON {\"0\": {\"H\": 1}, \"1\": {\"H\": 1}, \"2\": {\"H\": 1}, \"3\": {\"H\": 1}, \"4\": {\"H\": 1}, \"5\": {\"H\": 1}, \"6\": {\"H\": 1}, \"7\": {\"H\": 1}, \"8\": {\"O\": 1}, \"9\": {\"O\": 1}, \"10\": {\"O\": 1}, \"11\": {\"O\": 1}}" energy=-59.48762893676758 free_energy=-59.48762893676758 stress="-0.014248854480683804 -0.00264646764844656 -0.0006036731065250933 -0.00264646764844656 -0.009990020655095577 1.7386717445333488e-05 -0.0006036731065250933 1.7386717445333488e-05 -0.0032441492658108473" pbc="T T T"
H        2.20006747       1.25445026       4.96499857        0       0.01405566      -0.04528505      -0.08840419      -0.00024853       0.06954213      -0.07031266
H        4.34843838       2.46617230       1.43229535        1      -0.02665299       0.00303082      -0.04157887       0.02702692       0.11457156      -0.05786753
H        2.98328704       1.73399753       3.63878507        2      -0.01194177       0.05508752       0.07279834       0.60295475       0.30834103      -0.18256761
H        3.51514427       2.00736385       0.13922859        3       0.03179790       0.06106572       0.10121440      -0.27027762      -0.15716469      -0.15987584
H        5.16548685       2.02905518       3.44481844        4      -0.11198653      -0.02073700       0.02628852       0.20113701       0.01192419       0.00258295
H        4.35663967       3.43115439       3.41927942        5      -0.05407277      -0.08829561       0.06730702       0.11476114       0.15550038       0.01008277
H        1.34344626       1.69619354       6.95420331        6       0.10030795       0.00661269      -0.03397274      -0.13019869       0.24151489      -0.01743535
H        2.10984224       0.30881522       6.93294908        7       0.00850413       0.01656236       0.04138184       0.20707946      -0.23090690       0.09138107
O        2.17387653       1.26333413       3.95407808        8      -0.20626148       0.19218581      -0.01468615      -0.63074112      -0.44543600       0.35979298
O        4.34043403       2.49337952       0.42096117        9      -0.02899609       0.05027785      -0.13406542       0.25694644       0.09089936       0.21760134
O        4.35733593       2.49256227       3.06913927       10       0.02095008      -0.35743793      -0.30868259      -0.29698530      -0.09743898      -0.08415125
O        2.18173881       1.25736257       6.61651275       11       0.26429595       0.12693284       0.31239982      -0.08145448      -0.06134694      -0.10923085
12
Lattice="4.34051676 0.0 0.0 2.1841485215336385 3.75094401180867 0.0 0.0 0.0 7.06770668" Properties=species:S:1:pos:R:3:spacegroup_kinds:I:1:momenta:R:3:forces:R:3 spacegroup="P 1" unit_cell=conventional occupancy="_JSON {\"0\": {\"H\": 1}, \"1\": {\"H\": 1}, \"2\": {\"H\": 1}, \"3\": {\"H\": 1}, \"4\": {\"H\": 1}, \"5\": {\"H\": 1}, \"6\": {\"H\": 1}, \"7\": {\"H\": 1}, \"8\": {\"O\": 1}, \"9\": {\"O\": 1}, \"10\": {\"O\": 1}, \"11\": {\"O\": 1}}" energy=-59.47505569458008 free_energy=-59.47505569458008 stress="-0.016093622893095016 0.0016914370935410261 -0.003863415215164423 0.0016914370935410261 -0.008411182090640068 -0.0007912985165603459 -0.003863415215164423 -0.0007912985165603459 -0.012804172933101654" pbc="T T T"
H        2.20193174       1.24816051       4.94856913        0      -0.00670332      -0.00923634      -0.03364020      -0.02301139       0.06041626       0.45189539
H        4.34631270       2.47403007       1.42153973        1       0.00171005       0.03620033      -0.03083355       0.07569143       0.09482623       0.24448144
H        2.99972403       1.75683332       3.64724381        2       0.11395737       0.10714671       0.00141924      -0.07072829      -0.13860744      -0.03404405
H        3.51775123       2.01520227       0.14941014        3      -0.04935661      -0.00271212      -0.01964635      -0.53563070      -0.32239041      -0.31491619
H        5.14878138       2.02530062       3.45233530        4      -0.01790407      -0.02075596       0.03322176       0.56253660      -0.21424410       0.11561746
H        4.35039885       3.41750448       3.43635068        5      -0.00237606      -0.03428561       0.07411812       0.12085770       0.16219313      -0.08860496
H        1.35956495       1.70994502       6.94268396        6       0.01134703       0.10812613      -0.05485624      -0.37503138       0.23715401       0.11656037
H        2.11958443       0.30899279       6.94322263        7       0.07417182      -0.00792444       0.05381354       0.11433836      -0.09510536       0.06527156
O        2.16957590       1.26570756       3.95413268        8      -0.35017746       0.07246523       0.08742856       0.10310302      -0.05975699      -0.34707603
O        4.33908307       2.49562115       0.42093316        9      -0.13307255       0.29411636       0.06926631       0.50050461       0.30471370       0.02804656
O        4.35836869       2.48526047       3.06547462       10       0.12617069      -0.49601297      -0.25484002      -0.70556241       0.20558625      -0.05586218
O        2.18495499       1.25843658       6.61936431       11       0.23223313      -0.04712730       0.07454881       0.23293248      -0.23478523      -0.18136950
12
Lattice="4.34051676 0.0 0.0 2.1841485215336385 3.75094401180867 0.0 0.0 0.0 7.06770668" Properties=species:S:1:pos:R:3:spacegroup_kinds:I:1:momenta:R:3:forces:R:3 spacegroup="P 1" unit_cell=conventional occupancy="_JSON {\"0\": {\"H\": 1}, \"1\": {\"H\": 1}, \"2\": {\"H\": 1}, \"3\": {\"H\": 1}, \"4\": {\"H\": 1}, \"5\": {\"H\": 1}, \"6\": {\"H\": 1}, \"7\": {\"H\": 1}, \"8\": {\"O\": 1}, \"9\": {\"O\": 1}, \"10\": {\"O\": 1}, \"11\": {\"O\": 1}}" energy=-59.47679901123047 free_energy=-59.47679901123047 stress="0.00017056991055142134 0.0019426557701081038 -0.0033314365427941084 0.0019426557701081038 0.0018499525031074882 0.001222255639731884 -0.0033314365427941084 0.001222255639731884 -0.006397008430212736" pbc="T T T"
H        2.19740119       1.25218323       4.95567935        0      -0.04568664       0.02285388       0.07763119      -0.01091655       0.04115314       0.23400661
H        4.34323204       2.48379897       1.42458906        1       0.00136135       0.05918703       0.05638585       0.06765958       0.04136236       0.14049779
H        3.01087473       1.77912227       3.64667960        2      -0.02118088       0.06174779      -0.00262941      -0.49424124      -0.46738803       0.09983647
H        3.49798010       2.01320604       0.13987085        3      -0.08872146       0.00979305      -0.08917940       0.00656029      -0.02505124      -0.12095668
H        5.16382022       2.01608135       3.46271051        4       0.13016518      -0.04265260       0.02896801       0.13782795      -0.03000699      -0.13082770
H        4.35492487       3.41787809       3.45473140        5       0.03573622       0.01032040       0.01507398       0.09292041      -0.20766377      -0.32786620
H        1.35890268       1.74227696       6.92986768        6      -0.00308660       0.14939394      -0.05018924       0.01140632      -0.20408911       0.06052395
H        2.13910358       0.31078283       6.96098476        7       0.06732733       0.04537854       0.09198664      -0.06323279      -0.09071323       0.07713822
O        2.16633140       1.26690470       3.95434293        8      -0.10193408       0.13087243      -0.14043852       0.56427747       0.24444944      -0.28021854
O        4.33682864       2.49988894       0.42065955        9      -0.13805512       0.15015155      -0.02613110       0.04767364       0.03725328      -0.10700862
O        4.35849268       2.47859197       3.06317830       10      -0.13850712      -0.37747174       0.03116966      -0.29830235       0.42635277       0.45065546
O        2.18915720       1.25554495       6.61953317       11       0.30258186      -0.21957425       0.00735233      -0.06163269       0.23434141      -0.09578080
12
Lattice="4.34051676 0.0 0.0 2.1841485215336385 3.75094401180867 0.0 0.0 0.0 7.06770668" Properties=species:S:1:pos:R:3:spacegroup_kinds:I:1:momenta:R:3:forces:R:3 spacegroup="P 1" unit_cell=conventional occupancy="_JSON {\"0\": {\"H\": 1}, \"1\": {\"H\": 1}, \"2\": {\"H\": 1}, \"3\": {\"H\": 1}, \"4\": {\"H\": 1}, \"5\": {\"H\": 1}, \"6\": {\"H\": 1}, \"7\": {\"H\": 1}, \"8\": {\"O\": 1}, \"9\": {\"O\": 1}, \"10\": {\"O\": 1}, \"11\": {\"O\": 1}}" energy=-59.448753356933594 free_energy=-59.448753356933594 stress="0.009714897722005844 -0.0031859679147601128 0.0016177528304979205 -0.0031859679147601128 0.005686444230377674 0.002826018026098609 0.0016177528304979205 0.002826018026098609 0.007952740415930748" pbc="T T T"
H        2.18758027       1.25839954       4.97297926        0      -0.03633667       0.01946225       0.00124565       0.01402526       0.01747684      -0.34008768
H        4.34441621       2.49376772       1.44185832        1      -0.00485035       0.02313930       0.03126176       0.00369450      -0.03512625      -0.37429458
H        2.99630723       1.77840487       3.65000147        2      -0.09542228      -0.04535930       0.01940949      -0.11116590      -0.25042313      -0.01197854
H        3.47675269       2.01087432       0.12667551        3      -0.08288341       0.01993802      -0.05155053       0.49770540       0.22330603       0.09831820
H        5.19869344       2.00442224       3.46665334        4       0.10135946      -0.02707011      -0.03619215      -0.54508609       0.30696833      -0.43944830
H        4.36578304       3.41756490       3.45287470        5       0.00856457      -0.03320393      -0.06114339       0.04555338      -0.36720994      -0.38051713
H        1.36554763       1.77210179       6.92228038        6       0.04792001       0.05674843      -0.03217567       0.19147205      -0.51841754       0.05302131
H        2.15616307       0.31827653       6.98410303        7       0.05527318      -0.02370321       0.11280708      -0.20113045      -0.25143525       0.09734187
O        2.16508860       1.27068365       3.95148202        8      -0.02634090       0.33325466      -0.12267242       0.13036932       0.06505352       0.46539724
O        4.33357545       2.50208345       0.41965347        9      -0.21555638       0.10475492      -0.07305068      -0.27110514      -0.14285415       0.21529949
O        4.35662809       2.47354801       3.06466341       10      -0.03228976      -0.28761336       0.23064308       0.47582614       0.22426157       0.76229811
O        2.19379614       1.25218075       6.61937418       11       0.28056257      -0.14034764      -0.01858221      -0.23015842       0.72839993      -0.14535025
12
Lattice="4.34051676 0.0 0.0 2.1841485215336385 3.75094401180867 0.0 0.0 0.0 7.06770668" Properties=species:S:1:pos:R:3:spacegroup_kinds:I:1:momenta:R:3:forces:R:3 spacegroup="P 1" unit_cell=conventional occupancy="_JSON {\"0\": {\"H\": 1}, \"1\": {\"H\": 1}, \"2\": {\"H\": 1}, \"3\": {\"H\": 1}, \"4\": {\"H\": 1}, \"5\": {\"H\": 1}, \"6\": {\"H\": 1}, \"7\": {\"H\": 1}, \"8\": {\"O\": 1}, \"9\": {\"O\": 1}, \"10\": {\"O\": 1}, \"11\": {\"O\": 1}}" energy=-59.456626892089844 free_energy=-59.456626892089844 stress="0.0011172097874805331 -0.0058144740760326385 0.0032761627808213234 -0.0058144740760326385 0.0034382238518446684 0.00040681296377442777 0.0032761627808213234 0.00040681296377442777 0.0035006492398679256" pbc="T T T"
H        2.18026663       1.25886318       4.96482014        0      -0.03737257      -0.02616756      -0.07096793       0.05321776       0.02348748      -0.13624583
H        4.33632215       2.50067041       1.43742135        1      -0.06098745       0.04225549      -0.07071343      -0.01726300      -0.08969969      -0.24396862
H        2.97332409       1.76634462       3.64753780        2      -0.06589132      -0.02993081      -0.04076895       0.53161323       0.12830999      -0.15992200
H        3.47425977       2.02373862       0.11498884        3       0.06882093       0.07315169      -0.02430133       0.40764087       0.14439979       0.11353143
H        5.21174670       2.00422852       3.44088594        4      -0.03160827       0.02083498      -0.15700494      -0.55396473       0.30879945      -0.28008032
H        4.36460605       3.40390772       3.43560333        5      -0.02408402      -0.05733255      -0.09366112       0.08425090      -0.00253621      -0.13987416
H        1.37984483       1.77234417       6.91928314        6       0.07108626      -0.05283954       0.00722378       0.03359973      -0.45476693       0.11209165
H        2.16933943       0.30926413       7.00978026        7       0.01542034      -0.04786201       0.08556333      -0.22989506       0.18098953      -0.14958590
O        2.16376725       1.27477024       3.95071465        8      -0.12048292       0.17175978      -0.06746047      -0.53486353      -0.32394838       0.41688588
O        4.32976649       2.50392654       0.41974047        9      -0.29890962       0.18393069       0.10941140      -0.15033320       0.02695730       0.10883430
O        4.35773202       2.46910898       3.06849564       10       0.15617997      -0.25225998       0.32064081       0.44059777      -0.13375720       0.35824683
O        2.19782162       1.25139394       6.61917149       11       0.32782868      -0.02554012       0.00203882      -0.06460080       0.19176489       0.00008677
12
Lattice="4.34051676 0.0 0.0 2.1841485215336385 3.75094401180867 0.0 0.0 0.0 7.06770668" Properties=species:S:1:pos:R:3:spacegroup_kinds:I:1:momenta:R:3:forces:R:3 spacegroup="P 1" unit_cell=conventional occupancy="_JSON {\"0\": {\"H\": 1}, \"1\": {\"H\": 1}, \"2\": {\"H\": 1}, \"3\": {\"H\": 1}, \"4\": {\"H\": 1}, \"5\": {\"H\": 1}, \"6\": {\"H\": 1}, \"7\": {\"H\": 1}, \"8\": {\"O\": 1}, \"9\": {\"O\": 1}, \"10\": {\"O\": 1}, \"11\": {\"O\": 1}}" energy=-59.461666107177734 free_energy=-59.461666107177734 stress="-0.01428105030208826 -0.001872176886536181 -0.002278213622048497 -0.001872176886536181 -0.004507686477154493 -0.0018033477244898677 -0.002278213622048497 -0.0018033477244898677 -0.010620305314660072" pbc="T T T"
H        2.17279345       1.24853116       4.94777330        0       0.00006557      -0.04676581      -0.04430822       0.10162080       0.06477074       0.28865346
H        4.32369853       2.51488192       1.41896061        1      -0.03558217       0.05886393      -0.07202806      -0.01307759      -0.15136474       0.35269895
H        2.97446835       1.76717502       3.64079125        2       0.07995448       0.03545376      -0.01663219       0.37070534       0.00053255       0.00197133
H        3.49154027       2.04049959       0.11476445        3       0.06662301       0.05550242       0.01969969      -0.19108531      -0.18977228      -0.08000717
H        5.19453557       2.01890888       3.39896225        4      -0.08058525       0.06589198      -0.16425893       0.30858016      -0.12000026       0.24263623
H        4.35723141       3.39672652       3.40705679        5      -0.03361844       0.02384205      -0.12094802       0.16132221       0.46627700       0.16875377
H        1.39095477       1.74804721       6.92808676        6       0.02181062      -0.12487876       0.06730265      -0.21540122      -0.13826625       0.12974773
H        2.16818296       0.30841892       7.02289111        7       0.00075608       0.06244580      -0.00353416      -0.12147174       0.32711518      -0.31355318
O        2.16134019       1.27703714       3.94974978        8      -0.25661832       0.09936926      -0.07981104      -0.33040372      -0.29161602      -0.23547900
O        4.32598695       2.50562586       0.42169386        9      -0.10298091       0.10469964       0.20457139       0.42061493       0.39506418      -0.25718200
O        4.35999560       2.46531859       3.07296357       10       0.05527911      -0.26413918       0.24926450      -0.58544344      -0.08093369      -0.39162487
O        2.20283778       1.25092316       6.61970492       11       0.28489623      -0.07028503      -0.03931761       0.09403931      -0.28180647       0.09338452
12
Lattice="4.34051676 0.0 0.0 2.1841485215336385 3.75094401180867 0.0 0.0 0.0 7.06770668" Properties=species:S:1:pos:R:3:spacegroup_kinds:I:1:momenta:R:3:forces:R:3 spacegroup="P 1" unit_cell=conventional occupancy="_JSON {\"0\": {\"H\": 1}, \"1\": {\"H\": 1}, \"2\": {\"H\": 1}, \"3\": {\"H\": 1}, \"4\": {\"H\": 1}, \"5\": {\"H\": 1}, \"6\": {\"H\": 1}, \"7\": {\"H\": 1}, \"8\": {\"O\": 1}, \"9\": {\"O\": 1}, \"10\": {\"O\": 1}, \"11\": {\"O\": 1}}" energy=-59.438053131103516 free_energy=-59.438053131103516 stress="-0.01561747770756483 0.003618918126448989 -0.006425702944397926 0.003618918126448989 -0.006929440423846245 0.0009797257371246815 -0.006425702944397926 0.0009797257371246815 -0.012514553964138031" pbc="T T T"
H        2.17837457       1.23945021       4.95288950        0       0.03580575      -0.02417918       0.05555959       0.06211547       0.10079669      -0.05249291
H        4.31078713       2.52329322       1.41153120        1      -0.06355869       0.00259319       0.03262006       0.02382978      -0.16224787       0.70916659
H        2.99695558       1.77433729       3.63310850        2       0.09430850      -0.02361903      -0.01756352      -0.27330810      -0.37924814       0.26973349
H        3.49273131       2.05083764       0.12154254        3      -0.04661495       0.04779202       0.02031698      -0.27103668      -0.26608741      -0.16082871
H        5.19099875       2.02481248       3.36945776        4       0.08263489      -0.02757680      -0.05755436       0.78593230      -0.31687182       0.52763599
H        4.35645976       3.41806710       3.37816964        5       0.03070493       0.10685697      -0.13088310       0.21026872      -0.01356625       0.15373087
H        1.39684144       1.72040993       6.94836025        6      -0.02845038      -0.11314201       0.08958510      -0.42106560       0.16839300       0.08849554
H        2.16676379       0.32871069       7.01519132        7      -0.00955295       0.05321537      -0.02770247       0.00541015      -0.35987005      -0.09027992
O        2.15672943       1.27918283       3.94758264        8      -0.29134420       0.24091528      -0.25899531       0.43138748       0.01918519      -0.26806498
O        4.32650977       2.50726609       0.42478113        9       0.14677140       0.12418943       0.17925117       0.49457711       0.38157356      -0.52904320
O        4.35865015       2.46113217       3.07467096       10      -0.18913515      -0.25703217      -0.01671520      -1.20679450       0.66390598      -0.51570559
O        2.20724624       1.24904125       6.62048475       11       0.23843086      -0.13001301       0.13208108       0.15868397       0.16403705      -0.13234688
12