12
Lattice="4.34051676 0.0 0.0 2.1841485215336385 3.75094401180867 0.0 0.0 0.0 7.06770668" Properties=species:S:1:pos:R:3:spacegroup_kinds:I:1:forces:R:3 spacegroup="P 1" unit_cell=conventional occupancy="_JSON {\"0\": {\"H\": 1}, \"1\": {\"H\": 1}, \"2\": {\"H\": 1}, \"3\": {\"H\": 1}, \"4\": {\"H\": 1}, \"5\": {\"H\": 1}, \"6\": {\"H\": 1}, \"7\": {\"H\": 1}, \"8\": {\"O\": 1}, \"9\": {\"O\": 1}, \"10\": {\"O\": 1}, \"11\": {\"O\": 1}}" energy=-59.48868179321289 free_energy=-59.48868179321289 stress="-0.015848476439714432 -0.00041785291978158057 4.113290685836546e-08 -0.00041785291978158057 -0.015361926518380642 7.475162711045868e-09 4.113290685836546e-08 7.475162711045868e-09 -0.01480897981673479" pbc="T T T"
H        2.19248810       1.26043249       4.95235472        0       0.00408135       0.00234638       0.42520708
H        4.33217718       2.49051152       1.41850138        1      -0.00408086      -0.00234613       0.42522138
H        3.00441086       1.72719618       3.65017592        2       0.36373976       0.20910858      -0.10294212
H        3.52025442       2.02374784       0.11632258        3      -0.36373261      -0.20910525      -0.10294071
H        5.17578010       2.05224878       3.41308348        4       0.36276853      -0.18118869       0.14645718
H        4.37794479       3.44006165       3.41308348        5       0.02596821       0.40467387       0.14645939
H        1.34888518       1.69869523       6.94693682        6      -0.36276898       0.18118832       0.14645739
H        2.14672049       0.31088237       6.94693682        7      -0.02596774      -0.40467405       0.14645953
O        2.18356216       1.25530109       3.95658694        8      -0.35564223      -0.20445332      -0.31444067
O        4.34110312       2.49564292       0.42273360        9       0.35563299       0.20444851      -0.31445575
O        4.35533563       2.50382501       3.07586616       10      -0.40171778      -0.23094805      -0.30074197
O        2.16932965       1.24711900       6.60971950       11       0.40171924       0.23094973      -0.30074096
