4
Lattice="3.128588 0.0 0.0 -1.5642939988088433 2.709436998432005 0.0 0.0 0.0 5.016955" Properties=species:S:1:pos:R:3:spacegroup_kinds:I:1:momenta:R:3:forces:R:3 spacegroup="P 1" unit_cell=conventional occupancy="_JSON {\"0\": {\"Al\": 1}, \"1\": {\"Al\": 1}, \"2\": {\"N\": 1}, \"3\": {\"N\": 1}}" energy=-29.62374496459961 free_energy=-29.62374496459961 stress="0.004300564061850309 -0.00867247860878706 0.0028818054124712944 -0.00867247860878706 -0.006943690124899149 -0.004434557631611824 0.0028818054124712944 -0.004434557631611824 -0.014839128591120243" pbc="T T T"
Al       1.54321205       0.89379621       2.53645987        0      -0.00705444      -0.41529126       0.79444926      -0.25249732       0.39303094      -0.87834692
Al       0.03580898       1.79893951       4.98957807        1       0.09337913      -0.29525172      -0.61191861      -0.16601145       0.14058100       0.62745416
N        1.59619757       0.90645098       4.40111846        2      -0.02189820       1.09350725       0.27120762      -0.08899702      -0.09593701       0.34911090
N       -0.05911260       1.83464207       1.91219263        3      -0.06442652      -0.38296430      -0.45373808       0.50750577      -0.43767491      -0.09821858
