4
Lattice="3.128588 0.0 0.0 -1.5642939988088433 2.709436998432005 0.0 0.0 0.0 5.016955" Properties=species:S:1:pos:R:3:spacegroup_kinds:I:1:momenta:R:3:forces:R:3 spacegroup="P 1" unit_cell=conventional occupancy="_JSON {\"0\": {\"Al\": 1}, \"1\": {\"Al\": 1}, \"2\": {\"N\": 1}, \"3\": {\"N\": 1}}" energy=-29.673715591430664 free_energy=-29.673715591430664 stress="-0.0022255389485508204 -1.2545636991490028e-06 2.798906884038388e-09 -1.2545636991490028e-06 -0.0022274369839578867 -1.6356251464344496e-08 2.798906884038388e-09 -1.6356251464344496e-08 -0.0054536424577236176" pbc="T T T"
Al       1.56429556       0.90314476       2.50490041        0       0.68448204       0.53670047       0.91071479      -0.00003448       0.00001936       0.00553139
Al      -0.00000156       1.80629224       5.01337791        1       0.31075784       0.39520501      -1.87833745       0.00003415      -0.00001938       0.00552553
N        1.56429556       0.90314476       4.41849749        2      -0.23293981      -0.79739853      -0.40745139      -0.00003596       0.00002012      -0.00553208
N       -0.00000156       1.80629224       1.91001999        3      -0.76230006      -0.13450696       1.37507406       0.00003612      -0.00002005      -0.00552474
4
Lattice="3.128588 0.0 0.0 -1.5642939988088433 2.709436998432005 0.0 0.0 0.0 5.016955" Properties=species:S:1:pos:R:3:spacegroup_kinds:I:1:momenta:R:3:forces:R:3 spacegroup="P 1" unit_cell=conventional occupancy="_JSON {\"0\": {\"Al\": 1}, \"1\": {\"Al\": 1}, \"2\": {\"N\": 1}, \"3\": {\"N\": 1}}" energy=-29.43359375 free_energy=-29.43359375 stress="-0.013773540034890175 -0.016446294263005257 0.012948808260262012 -0.016446294263005257 -0.02396884560585022 0.00996972993016243 0.012948808260262012 0.00996972993016243 -0.012059527449309826" pbc="T T T"
Al       1.60246141       0.92231284       2.54150848        0       0.57498201      -0.13491991       1.02882463      -1.31301224      -0.49033415      -0.87831420
Al       0.00328789       1.81111140       4.94718775        1      -0.44725817       0.00118059      -1.07867293      -0.30154303      -0.59423184       1.18011844
N        1.53678588       0.85870779       4.38099594        2       0.14052047      -0.46066731       0.20203861       0.28490934       0.67984396       1.25553703
N       -0.05228245       1.80432671       2.00436660        3      -0.26824432       0.59440666      -0.15219035       1.32964623       0.40472171      -1.55734086
4
Lattice="3.128588 0.0 0.0 -1.5642939988088433 2.709436998432005 0.0 0.0 0.0 5.016955" Properties=species:S:1:pos:R:3:spacegroup_kinds:I:1:momenta:R:3:forces:R:3 spacegroup="P 1" unit_cell=conventional occupancy="_JSON {\"0\": {\"Al\": 1}, \"1\": {\"Al\": 1}, \"2\": {\"N\": 1}, \"3\": {\"N\": 1}}" energy=-29.567256927490234 free_energy=-29.567256927490234 stress="0.012915954925119877 0.0017024279804900289 0.0035793695133179426 0.0017024279804900289 -0.02585684508085251 -0.005369177088141441 0.0035793695133179426 -0.005369177088141441 -0.01143523771315813" pbc="T T T"
Al       1.59598185       0.90138486       2.55101264        0      -0.85003992      -0.64755175      -0.41676304      -0.33522770       0.74370450      -1.26921415
Al      -0.01311800       1.79082858       4.96769659        1      -0.24557031      -0.74327815       1.65595801      -0.18280190      -0.17026669       1.21499777
N        1.52960409       0.86779351       4.41996340        2       0.16413079       0.60763602       0.63654557       0.31887648       0.39321291      -0.09056919
N       -0.00060094       1.87475189       1.90756519        3       0.93147940       0.78319393      -1.87574056       0.19915304      -0.96665072       0.14478557
4
Lattice="3.128588 0.0 0.0 -1.5642939988088433 2.709436998432005 0.0 0.0 0.0 5.016955" Properties=species:S:1:pos:R:3:spacegroup_kinds:I:1:momenta:R:3:forces:R:3 spacegroup="P 1" unit_cell=conventional occupancy="_JSON {\"0\": {\"Al\": 1}, \"1\": {\"Al\": 1}, \"2\": {\"N\": 1}, \"3\": {\"N\": 1}}" energy=-29.406274795532227 free_energy=-29.406274795532227 stress="0.010688681155443192 0.016498152166604996 -0.008164015598595142 0.016498152166604996 -0.009423358365893364 -0.015553941950201988 -0.008164015598595142 -0.015553941950201988 -0.061254117637872696" pbc="T T T"
Al       1.53423928       0.87298461       2.51007452        0      -1.60925374       0.09619205      -1.03262264       0.74608660       1.00298548       0.03482386
Al      -0.01349004       1.78470221       5.05709165        1       0.21561233      -0.04339795       1.72443221       0.02271403       0.40732861      -1.66436934
N        1.55208975       0.92225132       4.42203507        2       0.38659374       0.63935796      -0.93002927       0.04495664      -0.39009613      -0.56986153
N        0.09667398       1.88681818       1.81230438        3       1.00704763      -0.69215202       0.23821966      -0.81375718      -1.02021766       2.19940710
4
Lattice="3.128588 0.0 0.0 -1.5642939988088433 2.709436998432005 0.0 0.0 0.0 5.016955" Properties=species:S:1:pos:R:3:spacegroup_kinds:I:1:momenta:R:3:forces:R:3 spacegroup="P 1" unit_cell=conventional occupancy="_JSON {\"0\": {\"Al\": 1}, \"1\": {\"Al\": 1}, \"2\": {\"N\": 1}, \"3\": {\"N\": 1}}" energy=-29.201902389526367 free_energy=-29.201902389526367 stress="-0.026440860703587532 0.038155458867549896 -0.031382616609334946 0.038155458867549896 -0.00487717567011714 0.0015438325935974717 -0.031382616609334946 0.0015438325935974717 -0.05181961506605148" pbc="T T T"
Al       1.49382402       0.87740192       2.48150490        0      -0.08661636      -0.02748820       0.25595550       2.48428392      -0.46186721       1.22612071
Al      -0.02076738       1.79337851       5.08843293        1       0.00716723       0.60209083      -1.27068300       0.64723092       0.57433438      -2.36004210
N        1.60157223       0.96971683       4.33361322        2       0.49437274       0.53651004      -0.17473327      -0.53882432      -0.70145333       1.74608803
N        0.13924907       1.81421456       1.89535165        3      -0.41492358      -1.11111265       1.18946080      -2.59268999       0.58898604      -0.61216712
4
Lattice="3.128588 0.0 0.0 -1.5642939988088433 2.709436998432005 0.0 0.0 0.0 5.016955" Properties=species:S:1:pos:R:3:spacegroup_kinds:I:1:momenta:R:3:forces:R:3 spacegroup="P 1" unit_cell=conventional occupancy="_JSON {\"0\": {\"Al\": 1}, \"1\": {\"Al\": 1}, \"2\": {\"N\": 1}, \"3\": {\"N\": 1}}" energy=-29.574628829956055 free_energy=-29.574628829956055 stress="-0.023617923259735107 -0.014321456663310528 -0.011128069832921028 -0.014321456663310528 0.01503028068691492 -0.0028545367531478405 -0.011128069832921028 -0.0028545367531478405 -0.014440269209444523" pbc="T T T"
Al       1.53421962       0.88369269       2.53780584        0       1.55944061       0.36820889       1.55971071       0.29264528      -0.24000576      -0.91367292
Al      -0.00048008       1.82107765       4.98837340        1       1.01688596       0.86374316      -2.47525476       0.94369662       0.52251208       0.78485811
N        1.63583965       0.96584646       4.40663186        2      -0.31021946      -0.52489312       1.27117337      -1.15103877      -0.78906685       0.05687999
N       -0.01177521       1.75252285       1.90648728        3      -2.26610710      -0.70705894      -0.35562942      -0.08530293       0.50656044       0.07193508
4
Lattice="3.128588 0.0 0.0 -1.5642939988088433 2.709436998432005 0.0 0.0 0.0 5.016955" Properties=species:S:1:pos:R:3:spacegroup_kinds:I:1:momenta:R:3:forces:R:3 spacegroup="P 1" unit_cell=conventional occupancy="_JSON {\"0\": {\"Al\": 1}, \"1\": {\"Al\": 1}, \"2\": {\"N\": 1}, \"3\": {\"N\": 1}}" energy=-29.372072219848633 free_energy=-29.372072219848633 stress="-0.005629668012261391 -0.018719419836997986 0.01584945246577263 -0.018719419836997986 -0.03227304294705391 0.01721220463514328 0.01584945246577263 0.01721220463514328 -0.0072981384582817554" pbc="T T T"
Al       1.57072836       0.88046442       2.56331977        0      -0.00039216      -0.37629495      -0.57844123      -1.34386468      -0.44065833      -1.50707626
Al       0.05055072       1.86456080       4.94968567        1       0.52727018       0.77034115       1.04960215      -0.49129117      -1.36433697       1.82584786
N        1.58204794       0.88176660       4.44992390        2      -0.27832253      -1.02263330      -0.55459282       0.15003799       1.16376090      -0.85894918
N       -0.12661085       1.75915457       1.88869867        3      -0.24855548       0.62858708       0.08343178       1.68511784       0.64123464       0.54017794
4
Lattice="3.128588 0.0 0.0 -1.5642939988088433 2.709436998432005 0.0 0.0 0.0 5.016955" Properties=species:S:1:pos:R:3:spacegroup_kinds:I:1:momenta:R:3:forces:R:3 spacegroup="P 1" unit_cell=conventional occupancy="_JSON {\"0\": {\"Al\": 1}, \"1\": {\"Al\": 1}, \"2\": {\"N\": 1}, \"3\": {\"N\": 1}}" energy=-29.596923828125 free_energy=-29.596923828125 stress="0.015976257622241974 -0.0045059556141495705 0.006018707994371653 -0.0045059556141495705 -0.02549930103123188 -0.004597073420882225 0.006018707994371653 -0.004597073420882225 -0.010013849474489689" pbc="T T T"
Al       1.53284808       0.86390067       2.51395075        0      -1.59464564      -0.16469669      -1.74991403      -0.27820602       0.89915693      -0.15420541
Al       0.06317841       1.83227863       5.00948379        1       0.38439997      -1.80666625       1.59449970      -0.58708221      -0.41271406       0.16725117
N        1.58572477       0.89623790       4.41422576        2       0.14193228       1.12964961      -0.09119130       0.25703967       0.38076428       0.00228177
N       -0.08152107       1.83862419       1.90381447        3       1.06831340       0.84171331       0.24660558       0.60824853      -0.86720729      -0.01532767
4
Lattice="3.128588 0.0 0.0 -1.5642939988088433 2.709436998432005 0.0 0.0 0.0 5.016955" Properties=species:S:1:pos:R:3:spacegroup_kinds:I:1:momenta:R:3:forces:R:3 spacegroup="P 1" unit_cell=conventional occupancy="_JSON {\"0\": {\"Al\": 1}, \"1\": {\"Al\": 1}, \"2\": {\"N\": 1}, \"3\": {\"N\": 1}}" energy=-29.462554931640625 free_energy=-29.462554931640625 stress="-0.005697190761566162 0.010849417187273502 -0.003906623926013708 0.010849417187273502 -0.019133860245347023 -0.012703216634690762 -0.003906623926013708 -0.012703216634690762 -0.011871268972754478" pbc="T T T"
Al       1.48347329       0.88264395       2.44527925        0      -0.30454557       1.01149493      -0.60004569       0.88393068       0.95768481       1.70776939
Al       0.06164410       1.77681258       5.07306072        1      -0.86715208      -0.75617347       0.43048954      -0.30080596       0.71655321      -1.72279787
N        1.61717712       0.94947186       4.40498428        2       0.38645841       0.04830037       0.18623307      -0.07234004      -0.67485958       0.48910621
N       -0.01486932       1.85626149       1.92266702        3       0.78523921      -0.30362189      -0.01667694      -0.51078498      -0.99937820      -0.47407779
4
Lattice="3.128588 0.0 0.0 -1.5642939988088433 2.709436998432005 0.0 0.0 0.0 5.016955" Properties=species:S:1:pos:R:3:spacegroup_kinds:I:1:momenta:R:3:forces:R:3 spacegroup="P 1" unit_cell=conventional occupancy="_JSON {\"0\": {\"Al\": 1}, \"1\": {\"Al\": 1}, \"2\": {\"N\": 1}, \"3\": {\"N\": 1}}" energy=-29.51875114440918 free_energy=-29.51875114440918 stress="-0.023370549082756042 0.006540174596011639 -0.016098255291581154 0.006540174596011639 0.006697479169815779 -0.00048239051830023527 -0.016098255291581154 -0.00048239051830023527 -0.022161172702908516" pbc="T T T"
Al       1.50607636       0.94974319       2.46463695        0       1.15921330       0.62635215       1.50690009       1.24247670      -0.60704589       1.15697312
Al       0.01335472       1.75088041       5.06242873        1      -0.91111983       0.14825280      -0.88962668       0.51474315       0.69610846      -1.43088973
N        1.62637958       0.90489617       4.42127857        2      -0.14223556      -0.64065085       0.21498344      -0.71771604      -0.51824331      -0.07984821
N        0.02538010       1.82158366       1.88963026        3      -0.10585792      -0.13395421      -0.83225694      -1.03950381       0.42918062       0.35376519
4
Lattice="3.128588 0.0 0.0 -1.5642939988088433 2.709436998432005 0.0 0.0 0.0 5.016955" Properties=species:S:1:pos:R:3:spacegroup_kinds:I:1:momenta:R:3:forces:R:3 spacegroup="P 1" unit_cell=conventional occupancy="_JSON {\"0\": {\"Al\": 1}, \"1\": {\"Al\": 1}, \"2\": {\"N\": 1}, \"3\": {\"N\": 1}}" energy=-29.605009078979492 free_energy=-29.605009078979492 stress="0.0015960084274411201 -0.006785835139453411 -0.0030952035449445248 -0.006785835139453411 0.0017807161202654243 0.0017242510803043842 -0.0030952035449445248 0.0017242510803043842 -0.02311408333480358" pbc="T T T"
Al       1.56693922       0.93861030       2.54470912        0       1.44875329      -0.98943800       1.48437439      -0.01659366      -0.29131579      -1.20301795
Al      -0.01304568       1.78057347       4.99752450        1       0.01689755       1.11024918      -1.70729991       0.38438338       0.02358479       0.50762641
N        1.58384204       0.87104968       4.42155571        2      -0.67927415      -0.02704894      -0.19037175      -0.39236486       0.15177742      -0.39792904
N        0.00122212       1.81989279       1.85992051        3      -0.78637671      -0.09376230       0.41329726       0.02457520       0.11595367       1.09332085
4
Lattice="3.128588 0.0 0.0 -1.5642939988088433 2.709436998432005 0.0 0.0 0.0 5.016955" Properties=species:S:1:pos:R:3:spacegroup_kinds:I:1:momenta:R:3:forces:R:3 spacegroup="P 1" unit_cell=conventional occupancy="_JSON {\"0\": {\"Al\": 1}, \"1\": {\"Al\": 1}, \"2\": {\"N\": 1}, \"3\": {\"N\": 1}}" energy=-29.470205307006836 free_energy=-29.470205307006836 stress="0.003203036030754447 -0.01780150644481182 0.011838346719741821 -0.01780150644481182 -0.04134931042790413 0.007359927520155907 0.011838346719741821 0.007359927520155907 -0.005160318221896887" pbc="T T T"
Al       1.62755626       0.89950080       2.54516753        0       1.04970773      -0.99981855      -0.80202966      -1.41065240       0.15933287      -0.91778541
Al      -0.00757058       1.81703570       4.95606285        1      -0.03757972       0.11959797      -0.16512722      -0.26242539      -0.84351480       1.41445458
N        1.52756238       0.85151205       4.42065483        2      -0.42752188       0.29023105      -0.07965719       0.31765720       0.98894560      -0.00115285
N       -0.06966668       1.84442110       1.93994529        3      -0.58460616       0.58998952       1.04681413       1.35542047      -0.30476350      -0.49551666
4
Lattice="3.128588 0.0 0.0 -1.5642939988088433 2.709436998432005 0.0 0.0 0.0 5.016955" Properties=species:S:1:pos:R:3:spacegroup_kinds:I:1:momenta:R:3:forces:R:3 spacegroup="P 1" unit_cell=conventional occupancy="_JSON {\"0\": {\"Al\": 1}, \"1\": {\"Al\": 1}, \"2\": {\"N\": 1}, \"3\": {\"N\": 1}}" energy=-29.452987670898438 free_energy=-29.452987670898438 stress="-0.013225013390183449 -0.023749958723783493 0.007911503314971924 -0.023749958723783493 -0.047931741923093796 -0.0073333303444087505 0.007911503314971924 -0.0073333303444087505 0.028632964938879013" pbc="T T T"
Al       1.63184036       0.85684028       2.46693548        0      -0.97589064      -0.55899597      -1.34838463      -1.39009857       1.11026263       1.17303896
Al      -0.02377744       1.82170278       4.98999601        1      -0.28018805       0.45883536       1.28013550      -0.08532377       0.08283284       0.34696928
N        1.52792702       0.92957753       4.44479005        2       0.11446443       0.97873213       0.08012541       0.22035940      -0.17398550       0.05598907
N       -0.04718870       1.83921503       2.00086006        3       1.14161425      -0.87857151      -0.01187623       1.25506258      -1.01910985      -1.57599735
4
Lattice="3.128588 0.0 0.0 -1.5642939988088433 2.709436998432005 0.0 0.0 0.0 5.016955" Properties=species:S:1:pos:R:3:spacegroup_kinds:I:1:momenta:R:3:forces:R:3 spacegroup="P 1" unit_cell=conventional occupancy="_JSON {\"0\": {\"Al\": 1}, \"1\": {\"Al\": 1}, \"2\": {\"N\": 1}, \"3\": {\"N\": 1}}" energy=-29.53631591796875 free_energy=-29.53631591796875 stress="-0.019857538864016533 0.013829044997692108 -0.005717328749597073 0.013829044997692108 -0.0031640566885471344 -0.0016709597548469901 -0.005717328749597073 -0.0016709597548469901 -0.0062606455758214" pbc="T T T"
Al       1.56291505       0.86348348       2.43836894        0      -1.44558792       0.38889154       0.34074995       0.67285895       0.11609291       1.45909643
Al      -0.01834139       1.83613135       5.05736570        1       0.19731518      -0.00921505       1.04742061       0.06595156       0.15003471      -1.19267392
N        1.54726696       0.95741147       4.47045639        2      -0.01024023       0.05684977       0.14844024       0.09761506      -0.44420761      -0.65174800
N        0.05576966       1.77068664       1.90062731        3       1.25851299      -0.43652626      -1.53661071      -0.83642554       0.17807986       0.38532576
4
Lattice="3.128588 0.0 0.0 -1.5642939988088433 2.709436998432005 0.0 0.0 0.0 5.016955" Properties=species:S:1:pos:R:3:spacegroup_kinds:I:1:momenta:R:3:forces:R:3 spacegroup="P 1" unit_cell=conventional occupancy="_JSON {\"0\": {\"Al\": 1}, \"1\": {\"Al\": 1}, \"2\": {\"N\": 1}, \"3\": {\"N\": 1}}" energy=-29.531002044677734 free_energy=-29.531002044677734 stress="-0.018294017761945724 0.01570754311978817 -0.011607705615460873 0.01570754311978817 0.003148086369037628 0.004605654161423445 -0.011607705615460873 0.004605654161423445 -0.017258863896131516" pbc="T T T"
Al       1.54701074       0.87273546       2.46070913        0       0.71855774      -0.11584366       0.49435386       1.07476830      -0.28505784       1.06925404
Al      -0.01761625       1.84389394       5.05391119        1       0.19346390       0.17720463      -0.69190138       0.23187727      -0.07941738      -1.16825056
N        1.56395351       0.94331116       4.45961399        2       0.32487457      -0.12409475      -0.51346148      -0.11547182      -0.20503461      -0.72920322
N        0.06831348       1.75176766       1.87546339        3      -1.23689616       0.06273373       0.71100914      -1.19117379       0.56950974       0.82819980
4
Lattice="3.128588 0.0 0.0 -1.5642939988088433 2.709436998432005 0.0 0.0 0.0 5.016955" Properties=species:S:1:pos:R:3:spacegroup_kinds:I:1:momenta:R:3:forces:R:3 spacegroup="P 1" unit_cell=conventional occupancy="_JSON {\"0\": {\"Al\": 1}, \"1\": {\"Al\": 1}, \"2\": {\"N\": 1}, \"3\": {\"N\": 1}}" energy=-29.61321449279785 free_energy=-29.61321449279785 stress="-0.00838172435760498 -0.004276655148714781 0.00549285626038909 -0.004276655148714781 -0.013937186449766159 0.0014803885715082288 0.00549285626038909 0.0014803885715082288 0.012475373223423958" pbc="T T T"
Al       1.57767909       0.87033378       2.48321565        0       0.42145901      -0.10086034       0.75449436      -0.50598615       0.14215422       0.64867699
Al       0.00878682       1.84488739       5.00616578        1       0.94842486       0.04829605      -0.67234660      -0.28190941      -0.37569791       0.05942769
N        1.54733738       0.91884309       4.41695261        2      -0.50233562      -0.06173760      -0.86681682       0.26756683       0.16352604       0.34766653
N       -0.02491945       1.77881442       1.96659662        3      -0.86754821       0.11430189       0.78466921       0.52032876       0.07001764      -1.05577135
4
Lattice="3.128588 0.0 0.0 -1.5642939988088433 2.709436998432005 0.0 0.0 0.0 5.016955" Properties=species:S:1:pos:R:3:spacegroup_kinds:I:1:momenta:R:3:forces:R:3 spacegroup="P 1" unit_cell=conventional occupancy="_JSON {\"0\": {\"Al\": 1}, \"1\": {\"Al\": 1}, \"2\": {\"N\": 1}, \"3\": {\"N\": 1}}" energy=-29.55784034729004 free_energy=-29.55784034729004 stress="-0.016363464295864105 -0.0029474806506186724 0.012903730385005474 -0.0029474806506186724 -0.006207468453794718 0.0015375762013718486 0.012903730385005474 0.0015375762013718486 -0.0027149333618581295" pbc="T T T"
Al       1.59068814       0.88023429       2.52274587        0      -0.41625612       0.17887028       0.33160771      -0.90884185      -0.14030644      -0.36868322
Al       0.01872291       1.83477375       4.97781992        1       0.14973970      -0.20763068      -0.17578520      -0.72829771      -0.10046262       0.72653139
N        1.52039171       0.92489999       4.39464375        2       0.19754353       0.25939938       0.47781777       0.72476035      -0.09605052       0.71573925
N       -0.04216865       1.77342026       1.96745698        3       0.06897287      -0.23063898      -0.63364004       0.91237909       0.33681950      -1.07358718
4
Lattice="3.128588 0.0 0.0 -1.5642939988088433 2.709436998432005 0.0 0.0 0.0 5.016955" Properties=species:S:1:pos:R:3:spacegroup_kinds:I:1:momenta:R:3:forces:R:3 spacegroup="P 1" unit_cell=conventional occupancy="_JSON {\"0\": {\"Al\": 1}, \"1\": {\"Al\": 1}, \"2\": {\"N\": 1}, \"3\": {\"N\": 1}}" energy=-29.621110916137695 free_energy=-29.621110916137695 stress="-0.021500637754797935 0.0052763717249035835 -0.0032675473485141993 0.0052763717249035835 0.01065803412348032 0.0019249299075454473 -0.0032675473485141993 0.0019249299075454473 -0.0015899803256615996" pbc="T T T"
Al       1.54767650       0.89587761       2.50832857        0      -0.85809979       0.46896496      -1.00003101       0.39160717      -0.39029315      -0.15032250
Al       0.00665801       1.82067514       5.00342498        1      -0.72966939      -0.11082570       1.46536832      -0.00950011       0.22697175       0.34862605
N        1.57185929       0.94293302       4.45440720        2       0.62349833      -0.37686584       0.64593186      -0.01969717      -0.43335408      -0.83889812
N        0.01256034       1.75229420       1.88600538        3       0.96427082       0.01872659      -1.11126893      -0.36240989       0.59667528       0.64059430
4
Lattice="3.128588 0.0 0.0 -1.5642939988088433 2.709436998432005 0.0 0.0 0.0 5.016955" Properties=species:S:1:pos:R:3:spacegroup_kinds:I:1:momenta:R:3:forces:R:3 spacegroup="P 1" unit_cell=conventional occupancy="_JSON {\"0\": {\"Al\": 1}, \"1\": {\"Al\": 1}, \"2\": {\"N\": 1}, \"3\": {\"N\": 1}}" energy=-29.520856857299805 free_energy=-29.520856857299805 stress="-0.014047389850020409 0.011820964515209198 -0.014255579560995102 0.011820964515209198 -0.005614543799310923 0.009361439384520054 -0.014255579560995102 0.009361439384520054 -0.019570939242839813" pbc="T T T"
Al       1.52999430       0.91403914       2.46474570        0       0.09545120      -0.23101246      -1.18071302       1.21875215      -0.63577014       0.99289978
Al      -0.00890654       1.82180735       5.05208970        1       0.31216898      -0.10747432       0.45537673       0.39472753      -0.38378426      -1.12710166
N        1.59437709       0.88605552       4.45928986        2      -0.04798999      -0.53350358      -0.20523241      -0.40810513       0.35578904      -0.79021788
N        0.05384447       1.77207218       1.87144999        3      -0.35963021       0.87199035       0.93056890      -1.20537460       0.66376555       0.92441964
4
Lattice="3.128588 0.0 0.0 -1.5642939988088433 2.709436998432005 0.0 0.0 0.0 5.016955" Properties=species:S:1:pos:R:3:spacegroup_kinds:I:1:momenta:R:3:forces:R:3 spacegroup="P 1" unit_cell=conventional occupancy="_JSON {\"0\": {\"Al\": 1}, \"1\": {\"Al\": 1}, \"2\": {\"N\": 1}, \"3\": {\"N\": 1}}" energy=-29.61878776550293 free_energy=-29.61878776550293 stress="0.0101173659786582 -0.0018218937329947948 -0.0018729936564341187 -0.0018218937329947948 -0.024783067405223846 0.004591131117194891 -0.0018729936564341187 0.004591131117194891 2.6416651962790638e-05" pbc="T T T"
Al       1.53818035       0.90928015       2.47247634        0       0.23228516      -0.27447263       1.41733403       0.21200958       0.18702203       0.85530770
Al       0.01802690       1.81430745       5.03506517        1       0.60360815      -0.42930299      -1.11140898       0.03760058      -0.69444150      -0.55142438
N        1.59518012       0.85128044       4.42414649        2       0.09084621       0.02420729      -0.77345467      -0.19470190       0.84070528       0.01228005
N       -0.01452985       1.83034437       1.92467356        3      -0.92673956       0.67956833       0.46752986      -0.05490822      -0.33328593      -0.31616324
4
Lattice="3.128588 0.0 0.0 -1.5642939988088433 2.709436998432005 0.0 0.0 0.0 5.016955" Properties=species:S:1:pos:R:3:spacegroup_kinds:I:1:momenta:R:3:forces:R:3 spacegroup="P 1" unit_cell=conventional occupancy="_JSON {\"0\": {\"Al\": 1}, \"1\": {\"Al\": 1}, \"2\": {\"N\": 1}, \"3\": {\"N\": 1}}" energy=-29.62374496459961 free_energy=-29.62374496459961 stress="0.004300564061850309 -0.00867247860878706 0.0028818054124712944 -0.00867247860878706 -0.006943690124899149 -0.004434557631611824 0.0028818054124712944 -0.004434557631611824 -0.014839128591120243" pbc="T T T"
Al       1.54321205       0.89379621       2.53645987        0      -0.00705444      -0.41529126       0.79444926      -0.25249732       0.39303094      -0.87834692
Al       0.03580898       1.79893951       4.98957807        1       0.09337913      -0.29525172      -0.61191861      -0.16601145       0.14058100       0.62745416
N        1.59619757       0.90645098       4.40111846        2      -0.02189820       1.09350725       0.27120762      -0.08899702      -0.09593701       0.34911090
N       -0.05911260       1.83464207       1.91219263        3      -0.06442652      -0.38296430      -0.45373808       0.50750577      -0.43767491      -0.09821858
