4
Lattice="3.128588 0.0 0.0 -1.5642939988088433 2.709436998432005 0.0 0.0 0.0 5.016955" Properties=species:S:1:pos:R:3:spacegroup_kinds:I:1:forces:R:3 spacegroup="P 1" unit_cell=conventional occupancy="_JSON {\"0\": {\"Al\": 1}, \"1\": {\"Al\": 1}, \"2\": {\"N\": 1}, \"3\": {\"N\": 1}}" energy=-29.673715591430664 free_energy=-29.673715591430664 stress="-0.0022255389485508204 -1.2545636991490028e-06 2.798906884038388e-09 -1.2545636991490028e-06 -0.0022274369839578867 -1.6356251464344496e-08 2.798906884038388e-09 -1.6356251464344496e-08 -0.0054536424577236176" pbc="T T T"
Al       1.56429556       0.90314476       2.50490041        0      -0.00003448       0.00001936       0.00553139
Al      -0.00000156       1.80629224       5.01337791        1       0.00003415      -0.00001938       0.00552553
N        1.56429556       0.90314476       4.41849749        2      -0.00003596       0.00002012      -0.00553208
N       -0.00000156       1.80629224       1.91001999        3       0.00003612      -0.00002005      -0.00552474
