32
Lattice="6.17176593 0.0 0.0 0.0 8.01859859 0.0 0.0 0.0 13.03281824" Properties=species:S:1:pos:R:3:spacegroup_kinds:I:1:forces:R:3 spacegroup="P 1" unit_cell=conventional occupancy="_JSON {\"0\": {\"Li\": 1}, \"1\": {\"Li\": 1}, \"2\": {\"Li\": 1}, \"3\": {\"Li\": 1}, \"4\": {\"Li\": 1}, \"5\": {\"Li\": 1}, \"6\": {\"Li\": 1}, \"7\": {\"Li\": 1}, \"8\": {\"Li\": 1}, \"9\": {\"Li\": 1}, \"10\": {\"Li\": 1}, \"11\": {\"Li\": 1}, \"12\": {\"P\": 1}, \"13\": {\"P\": 1}, \"14\": {\"P\": 1}, \"15\": {\"P\": 1}, \"16\": {\"S\": 1}, \"17\": {\"S\": 1}, \"18\": {\"S\": 1}, \"19\": {\"S\": 1}, \"20\": {\"S\": 1}, \"21\": {\"S\": 1}, \"22\": {\"S\": 1}, \"23\": {\"S\": 1}, \"24\": {\"S\": 1}, \"25\": {\"S\": 1}, \"26\": {\"S\": 1}, \"27\": {\"S\": 1}, \"28\": {\"S\": 1}, \"29\": {\"S\": 1}, \"30\": {\"S\": 1}, \"31\": {\"S\": 1}}" energy=-140.3463134765625 free_energy=-140.3463134765625 stress="-0.0028886268846690655 -1.9135235063139078e-10 -5.556342053125718e-09 -1.9135235063139078e-10 -0.004072250798344612 2.3257621606376233e-08 -5.556342053125718e-09 2.3257621606376233e-08 -0.00259357294999063" pbc="T T T"
Li       2.40166818       0.26892254       4.33377964        0      -0.01548951       0.00236036       0.00063436
Li       3.77009795       7.74967599       8.69903848        1       0.01548904      -0.00236051      -0.00063139
Li       5.48755104       7.74967601       2.18262941        2      -0.01549334      -0.00236097      -0.00063185
Li       0.68421475       0.26892244      10.85018872        3       0.01549165       0.00236141       0.00063167
Li       3.77009793       4.27822192       8.69903841        4       0.01548797       0.00235810      -0.00063444
Li       2.40166819       3.74037680       4.33377965        5      -0.01548973      -0.00235982       0.00063395
Li       0.68421478       3.74037684      10.85018869        6       0.01549145      -0.00236172       0.00063221
Li       5.48755105       4.27822185       2.18262934        7      -0.01549133       0.00236019      -0.00062985
Li       3.08588292      -0.00000009       0.00000007        8      -0.00000058      -0.00000135      -0.00000103
Li       0.00000004      -0.00000009       6.51640922        9       0.00000075       0.00000265      -0.00000195
Li       3.08588292       4.00929942       0.00000002       10      -0.00000117      -0.00000196       0.00000027
Li      -0.00000002       4.00929930       6.51640925       11      -0.00000008      -0.00000118      -0.00000191
P        0.93932954       2.00464924       1.16793466       12      -0.00066777       0.00001315       0.03303279
P        5.23243629       6.01394879      11.86488432       13       0.00066584       0.00000499      -0.03305728
P        4.02521221       6.01394889       5.34847527       14      -0.00065035       0.00000160      -0.03306238
P        2.14655383       2.00464975       7.68434319       15       0.00065331       0.00000047       0.03305278
S        5.07612370       2.00464970       1.30682510       16       0.00280353      -0.00000072       0.01274993
S        1.09564238       6.01394886      11.72599295       17      -0.00280078       0.00000032      -0.01274664
S        1.99024100       6.01394891       5.20958392       18       0.00279287       0.00000117      -0.01274365
S        4.18152499       2.00464969       7.82323419       19      -0.00279047      -0.00000148       0.01274794
S        1.68772170       2.00464971      12.25093574       20       0.03397094      -0.00000045       0.02524890
S        4.48404414       6.01394887       0.78188251       21      -0.03397392       0.00000031      -0.02523646
S        4.77360472       6.01394892       7.29829157       22       0.03397258       0.00000160      -0.02523673
S        1.39816138       2.00464969       5.73452698       23      -0.03397441      -0.00000059       0.02523939
S        1.68016693       0.28148002       2.00960381       24       0.02273580      -0.00260183      -0.01691497
S        4.49159897       7.73711927      11.02321407       25      -0.02272934       0.00258649       0.01692493
S        4.76604986       7.73711916       4.50680508       26       0.02272806       0.00258195       0.01692826
S        1.40571580       0.28147964       8.52601304       27      -0.02272802      -0.00258591      -0.01692789
S        4.49159903       4.29077890      11.02321419       28      -0.02273328      -0.00258978       0.01692275
S        1.68016701       3.72781958       2.00960391       29       0.02273031       0.00258949      -0.01692422
S        1.40571581       3.72781969       8.52601314       30      -0.02272851       0.00258608      -0.01692749
S        4.76604991       4.29077866       4.50680504       31       0.02272839      -0.00258203       0.01693008
