32
Lattice="6.17176593 0.0 0.0 0.0 8.01859859 0.0 0.0 0.0 13.03281824" Properties=species:S:1:pos:R:3:spacegroup_kinds:I:1:momenta:R:3:forces:R:3 spacegroup="P 1" unit_cell=conventional occupancy="_JSON {\"0\": {\"Li\": 1}, \"1\": {\"Li\": 1}, \"2\": {\"Li\": 1}, \"3\": {\"Li\": 1}, \"4\": {\"Li\": 1}, \"5\": {\"Li\": 1}, \"6\": {\"Li\": 1}, \"7\": {\"Li\": 1}, \"8\": {\"Li\": 1}, \"9\": {\"Li\": 1}, \"10\": {\"Li\": 1}, \"11\": {\"Li\": 1}, \"12\": {\"P\": 1}, \"13\": {\"P\": 1}, \"14\": {\"P\": 1}, \"15\": {\"P\": 1}, \"16\": {\"S\": 1}, \"17\": {\"S\": 1}, \"18\": {\"S\": 1}, \"19\": {\"S\": 1}, \"20\": {\"S\": 1}, \"21\": {\"S\": 1}, \"22\": {\"S\": 1}, \"23\": {\"S\": 1}, \"24\": {\"S\": 1}, \"25\": {\"S\": 1}, \"26\": {\"S\": 1}, \"27\": {\"S\": 1}, \"28\": {\"S\": 1}, \"29\": {\"S\": 1}, \"30\": {\"S\": 1}, \"31\": {\"S\": 1}}" energy=-140.1791534423828 free_energy=-140.1791534423828 stress="-0.0008854239131323993 -0.00025189336156472564 0.00020701058383565396 -0.00025189336156472564 0.00017136838869191706 -0.0011242422042414546 0.00020701058383565396 -0.0011242422042414546 0.0012377117527648807" pbc="T T T"
Li       2.31321324       0.34239377       4.31784674        0      -0.12438654      -0.04242113      -0.33894366       0.13775240      -0.23779330      -0.05304074
Li       3.76638746       7.77809912       8.57529027        1      -0.01291592       0.06313492      -0.23693024       0.03038120      -0.12462952       0.20655626
Li       5.53020269       7.77995733       2.18832770        2       0.23005891      -0.04728068       0.46585172      -0.08152539      -0.05579969       0.01054706
Li       0.72246261       0.21368169      10.84324151        3       0.18234243       0.00872702      -0.00310520      -0.09178703       0.09607577       0.00208907
Li       3.79772689       4.27103229       8.72078450        4      -0.03568716      -0.09063752       0.11723070      -0.10973018      -0.01326619       0.02692806
Li       2.40641437       3.71299466       4.26603565        5       0.16692990      -0.25511690      -0.08697373       0.04895671       0.08097368       0.20447615
Li       0.75912802       3.75774083      10.84977294        6       0.23869336      -0.44092485      -0.00734886      -0.03794568      -0.01672243       0.01200844
Li       5.52698984       4.32274318       2.15586125        7      -0.01096352       0.05488088       0.03137203      -0.04904686      -0.03925723       0.07373606
Li       2.98200820      -0.00086294      -0.06858508        8      -0.30961872       0.03592193       0.22719844       0.10043234      -0.11069988      -0.01445325
Li       0.07379345      -0.03811353       6.50706612        9       0.01299505      -0.41014522       0.08346618      -0.03135915      -0.12663548       0.01202866
Li       3.14895820       3.98647538       0.05980079       10       0.04060123       0.07447021       0.31524389      -0.00243491      -0.05534057      -0.07637744
Li      -0.10009805       3.85899374       6.52910056       11      -0.31574269      -0.32615731       0.27429392      -0.07509977       0.07319083       0.01983124
P        0.92359456       2.03116578       1.17272524       12       0.54223274       0.24223319      -0.62232351       0.37767607      -0.33733252      -0.19224191
P        5.22063033       5.98917445      11.88606405       13      -0.01759243      -0.34606347       0.01830975       0.10337771       0.54861557      -0.22101094
P        4.01723829       6.07021132       5.33238728       14      -0.13825929       0.33151987      -0.15567469       0.36228549      -0.40700081       0.40498230
P        2.16034138       1.99547111       7.65384921       15       0.06082538      -0.32621736       0.48805239      -0.54598874      -0.12981376       0.21416074
S        5.07038933       2.00876361       1.30349763       16      -0.13225874       0.10070045      -0.24830310       0.05282982       0.06180411       0.06430755
S        1.10354202       6.01181016      11.74269500       17      -0.39586413      -0.01384593       0.03592058      -0.17937782      -0.02894293       0.06780709
S        1.98804241       6.00270046       5.24895595       18      -0.21790329      -0.22729734       0.47990423       0.10028272       0.10751948      -0.16165628
S        4.17804023       2.00421669       7.80888445       19       0.54137517       0.28067146      -0.30383385       0.20577686       0.05549493      -0.05312331
S        1.70018896       2.00534188      12.24041818       20       0.59275518      -0.10306349      -0.21729713      -0.12514389       0.06997761       0.30465102
S        4.47020645       6.00232089       0.80476417       21       0.01415204      -0.25095975       0.10212865       0.00145753       0.10412829      -0.10210003
S        4.77032567       5.97823471       7.35090715       22       0.01924764      -0.05998660      -0.03564741      -0.02382898       0.16138798      -0.82780027
S        1.37197183       1.98397097       5.69828863       23      -0.74345651      -0.27553070      -0.73901824       0.06528626       0.12727198       0.31225404
S        1.72228873       0.28568391       1.99504179       24       0.63469525      -0.37705942       0.14533568      -0.23236541       0.29692596      -0.09060822
S        4.47910308       7.73630325      11.01363785       25      -0.42188475      -0.21852676      -0.07636703       0.14637020      -0.41815597       0.17196351
S        4.73765911       7.84066409       4.53556673       26      -0.34658810       1.90248768       0.66178763      -0.10406260      -0.40478066       0.09946633
S        1.39976870       0.26290959       8.53158768       27      -0.35344607       0.09461296      -0.18531653       0.18893421       0.28528786      -0.29164684
S        4.52636407       4.26050206      11.04653228       28       0.24169790       0.01210402       0.28765432      -0.07009802      -0.08436306      -0.00547991
S        1.68869179       3.74068438       2.01883980       29       0.66368491       0.17554579       0.30615441      -0.04817373      -0.02104569      -0.15834975
S        1.38430679       3.69490645       8.51352160       30      -0.53619134       0.01250716      -0.22574617       0.10584342      -0.01277024      -0.13685524
S        4.79010884       4.30620164       4.47743106       31      -0.06952788       0.42171692      -0.55707511      -0.21967483       0.55569595       0.17695090
