32
Lattice="6.17176593 0.0 0.0 0.0 8.01859859 0.0 0.0 0.0 13.03281824" Properties=species:S:1:pos:R:3:spacegroup_kinds:I:1:momenta:R:3:forces:R:3 spacegroup="P 1" unit_cell=conventional occupancy="_JSON {\"0\": {\"Li\": 1}, \"1\": {\"Li\": 1}, \"2\": {\"Li\": 1}, \"3\": {\"Li\": 1}, \"4\": {\"Li\": 1}, \"5\": {\"Li\": 1}, \"6\": {\"Li\": 1}, \"7\": {\"Li\": 1}, \"8\": {\"Li\": 1}, \"9\": {\"Li\": 1}, \"10\": {\"Li\": 1}, \"11\": {\"Li\": 1}, \"12\": {\"P\": 1}, \"13\": {\"P\": 1}, \"14\": {\"P\": 1}, \"15\": {\"P\": 1}, \"16\": {\"S\": 1}, \"17\": {\"S\": 1}, \"18\": {\"S\": 1}, \"19\": {\"S\": 1}, \"20\": {\"S\": 1}, \"21\": {\"S\": 1}, \"22\": {\"S\": 1}, \"23\": {\"S\": 1}, \"24\": {\"S\": 1}, \"25\": {\"S\": 1}, \"26\": {\"S\": 1}, \"27\": {\"S\": 1}, \"28\": {\"S\": 1}, \"29\": {\"S\": 1}, \"30\": {\"S\": 1}, \"31\": {\"S\": 1}}" energy=-140.31869506835938 free_energy=-140.31869506835938 stress="-0.007170632015913725 -5.995943741510246e-09 -5.902891064835103e-09 -5.995943741510246e-09 -0.008259423077106476 -6.415683984073439e-09 -5.902891064835103e-09 -6.415683984073439e-09 -0.005266329273581505" pbc="T T T"
Li       2.40329652       0.26860172       4.33400832        0       0.00000000       0.00000000       0.00000000      -0.02603564       0.00549156      -0.00432103
Li       3.76846941       7.74999687       8.69880992        1       0.00000000       0.00000000       0.00000000       0.02603681      -0.00549211       0.00432251
Li       5.48917948       7.74999687       2.18240080        2       0.00000000       0.00000000       0.00000000      -0.02603616      -0.00549096       0.00432323
Li       0.68258645       0.26860172      10.85041744        3       0.00000000       0.00000000       0.00000000       0.02603586       0.00549203      -0.00431959
Li       3.76846941       4.27790102       8.69880992        4       0.00000000       0.00000000       0.00000000       0.02603651       0.00549170       0.00432204
Li       2.40329652       3.74069757       4.33400832        5       0.00000000       0.00000000       0.00000000      -0.02603568      -0.00549135      -0.00432122
Li       0.68258645       3.74069757      10.85041744        6       0.00000000       0.00000000       0.00000000       0.02603592      -0.00549190      -0.00431981
Li       5.48917948       4.27790102       2.18240080        7       0.00000000       0.00000000       0.00000000      -0.02603647       0.00549090       0.00432258
Li       3.08588297       0.00000000       0.00000000        8       0.00000000       0.00000000       0.00000000      -0.00000062      -0.00000221      -0.00000004
Li       0.00000000       0.00000000       6.51640912        9       0.00000000       0.00000000       0.00000000      -0.00000055       0.00000067      -0.00000017
Li       3.08588297       4.00929929       0.00000000       10       0.00000000       0.00000000       0.00000000       0.00000011       0.00000082       0.00000046
Li       0.00000000       4.00929929       6.51640912       11       0.00000000       0.00000000       0.00000000       0.00000044      -0.00000038      -0.00000050
P        0.94051010       2.00464965       1.16601784       12       0.00000000       0.00000000       0.00000000      -0.02067173       0.00000007       0.02376066
P        5.23125583       6.01394894      11.86680040       13       0.00000000       0.00000000       0.00000000       0.02066659      -0.00000011      -0.02375958
P        4.02639307       6.01394894       5.35039128       14       0.00000000       0.00000000       0.00000000      -0.02066758       0.00000010      -0.02375712
P        2.14537286       2.00464965       7.68242696       15       0.00000000       0.00000000       0.00000000       0.02066810       0.00000126       0.02375701
S        5.08970823       2.00464965       1.30575389       16       0.00000000       0.00000000       0.00000000      -0.25450641       0.00000010       0.01679038
S        1.08205770       6.01394894      11.72706435       17       0.00000000       0.00000000       0.00000000       0.25450742      -0.00000053      -0.01679174
S        2.00382526       6.01394894       5.21065523       18       0.00000000       0.00000000       0.00000000      -0.25450549      -0.00000175      -0.01679202
S        4.16794067       2.00464965       7.82216301       19       0.00000000       0.00000000       0.00000000       0.25450075       0.00000019       0.01679052
S        1.68132889       2.00464965      12.25955363       20       0.00000000       0.00000000       0.00000000       0.10912228       0.00000004      -0.16719499
S        4.49043704       6.01394894       0.77326461       21       0.00000000       0.00000000       0.00000000      -0.10912062      -0.00000001       0.16718128
S        4.76721186       6.01394894       7.28967373       22       0.00000000       0.00000000       0.00000000       0.10912073      -0.00000008       0.16717950
S        1.40455407       2.00464965       5.74314451       23       0.00000000       0.00000000       0.00000000      -0.10911937       0.00000014      -0.16718045
S        1.67233151       0.29287049       2.00524453       24       0.00000000       0.00000000       0.00000000       0.13957831      -0.21272546       0.08709881
S        4.49943442       7.72572810      11.02757371       25       0.00000000       0.00000000       0.00000000      -0.13957529       0.21272472      -0.08709179
S        4.75821447       7.72572810       4.51116459       26       0.00000000       0.00000000       0.00000000       0.13957539       0.21272558      -0.08709183
S        1.41355146       0.29287049       8.52165365       27       0.00000000       0.00000000       0.00000000      -0.13957545      -0.21271992       0.08709108
S        4.49943442       4.30216979      11.02757371       28       0.00000000       0.00000000       0.00000000      -0.13957743      -0.21272431      -0.08709484
S        1.67233151       3.71642880       2.00524453       29       0.00000000       0.00000000       0.00000000       0.13957845       0.21272698       0.08709970
S        1.41355146       3.71642880       8.52165365       30       0.00000000       0.00000000       0.00000000      -0.13957603       0.21271996       0.08709009
S        4.75821447       4.30216979       4.51116459       31       0.00000000       0.00000000       0.00000000       0.13957700      -0.21272564      -0.08709332
32
Lattice="6.17176593 0.0 0.0 0.0 8.01859859 0.0 0.0 0.0 13.03281824" Properties=species:S:1:pos:R:3:spacegroup_kinds:I:1:momenta:R:3:forces:R:3 spacegroup="P 1" unit_cell=conventional occupancy="_JSON {\"0\": {\"Li\": 1}, \"1\": {\"Li\": 1}, \"2\": {\"Li\": 1}, \"3\": {\"Li\": 1}, \"4\": {\"Li\": 1}, \"5\": {\"Li\": 1}, \"6\": {\"Li\": 1}, \"7\": {\"Li\": 1}, \"8\": {\"Li\": 1}, \"9\": {\"Li\": 1}, \"10\": {\"Li\": 1}, \"11\": {\"Li\": 1}, \"12\": {\"P\": 1}, \"13\": {\"P\": 1}, \"14\": {\"P\": 1}, \"15\": {\"P\": 1}, \"16\": {\"S\": 1}, \"17\": {\"S\": 1}, \"18\": {\"S\": 1}, \"19\": {\"S\": 1}, \"20\": {\"S\": 1}, \"21\": {\"S\": 1}, \"22\": {\"S\": 1}, \"23\": {\"S\": 1}, \"24\": {\"S\": 1}, \"25\": {\"S\": 1}, \"26\": {\"S\": 1}, \"27\": {\"S\": 1}, \"28\": {\"S\": 1}, \"29\": {\"S\": 1}, \"30\": {\"S\": 1}, \"31\": {\"S\": 1}}" energy=-140.31919860839844 free_energy=-140.31919860839844 stress="-0.007034107577055693 1.722829620121047e-05 -7.751671546429861e-06 1.722829620121047e-05 -0.008229781873524189 1.9207247532904148e-05 -7.751671546429861e-06 1.9207247532904148e-05 -0.0052658324129879475" pbc="T T T"
Li       2.40521091       0.26913797       4.33340028        0      -0.03001899       0.02709603      -0.02683306      -0.03068326       0.00491220      -0.00465781
Li       3.76844362       7.75006648       8.69835150        1      -0.01226391      -0.00483455       0.01262861       0.02743751      -0.00433412       0.00540310
Li       5.49104904       7.75025685       2.18300481        2       0.07833032      -0.01606574       0.01485360      -0.02787135      -0.00798105       0.00199255
Li       0.68274164       0.26802393      10.85066088        3       0.00355580      -0.05197224      -0.02530154       0.02711231       0.00713390      -0.00556512
Li       3.76761947       4.28056943       8.69835186        4      -0.03044625       0.09145323       0.04995711       0.02560469      -0.00213815       0.00530924
Li       2.40147494       3.74190985       4.33298099        5      -0.11037050       0.02234547      -0.03301115      -0.02150310      -0.00449982       0.00043058
Li       0.68251017       3.74033371      10.85079164        6      -0.01417956      -0.09499020       0.01750784       0.02504187      -0.00517349      -0.00376856
Li       5.49163697       4.27791743       2.18290635        7       0.13072407      -0.02168967      -0.01228387      -0.03170460       0.00736433       0.00195481
Li       3.08908836      -0.00125740      -0.00255672        8       0.08991554      -0.05156236      -0.07953551      -0.00811134       0.00434378       0.00952021
Li       0.00083943       0.00093035       6.51510649        9       0.01308837       0.01436875      -0.05068078       0.00022665      -0.00260238       0.00348058
Li       3.08627692       4.00591850      -0.00095742       10       0.03244779      -0.17944073      -0.04074203       0.00261017       0.00341479       0.00310733
Li      -0.00222903       4.00832488       6.51640269       11      -0.16057854      -0.05349584      -0.02519258       0.00088536      -0.00079451       0.00309719
P        0.94016818       2.00503876       1.16638698       12      -0.08865316       0.01780821       0.04274314      -0.01937059      -0.00922647       0.01824091
P        5.23110837       6.01397613      11.86624280       13      -0.01265210       0.10216255      -0.05468146       0.01925641      -0.00979348      -0.00663001
P        4.02682269       6.01457604       5.35052966       14       0.06077585       0.08884984       0.00219145      -0.04254314      -0.00690616      -0.02342018
P        2.14447372       2.00538169       7.68145188       15      -0.11639707       0.14439400      -0.22001581       0.04264534      -0.01797074       0.04738048
S        5.08862088       2.00396431       1.30511119       16      -0.15053841      -0.13531689      -0.17187223      -0.23883447       0.00452841       0.01895401
S        1.08164266       6.01377635      11.72714605       17       0.05494698       0.01105309      -0.04441856       0.25795734      -0.00143737      -0.01867216
S        2.00293343       6.01418968       5.21137189       18      -0.22456547       0.04994155       0.21142470      -0.23483497       0.00223352      -0.01738195
S        4.16831351       2.00386048       7.82197462       19       0.20705811      -0.10580979      -0.03298473       0.23651604       0.00904722       0.01458769
S        1.68178661       2.00498464      12.25952683       20       0.07361100       0.15014930       0.11014280       0.10422623       0.00001459      -0.16075295
S        4.48996530       6.01423756       0.77309272       21      -0.17411829       0.24645492       0.03036519      -0.10474561      -0.00451858       0.16564178
S        4.76723081       6.01359615       7.28966527       22      -0.03199147      -0.06237924       0.06833844       0.11138067       0.00441023       0.16732085
S        1.40444080       2.00484445       5.74306007       23       0.00442275      -0.09593090      -0.01344203      -0.11240335       0.00156830      -0.17723225
S        1.67342292       0.29298875       2.00442925       24       0.31951203       0.14315116      -0.26220414       0.13665241      -0.20805483       0.08601865
S        4.49953275       7.72575572      11.02877437       25       0.00560759       0.00533129       0.22719260      -0.14137848       0.22116043      -0.10276889
S        4.75790176       7.72595631       4.51098076       26      -0.10181973       0.04442775      -0.20263646       0.14416587       0.21772975      -0.08799140
S        1.41445171       0.29201064       8.52180220       27       0.18847549      -0.23275577       0.01494258      -0.14057288      -0.19894490       0.07840613
S        4.49896603       4.30194684      11.02783158       28      -0.04769149       0.01985057       0.08864668      -0.13835020      -0.21169727      -0.09219465
S        1.67307478       3.71607146       2.00659741       29       0.08964742      -0.16904860       0.24173381       0.13544156       0.21026255       0.07861133
S        1.41295083       3.71611566       8.52255030       30      -0.12541466      -0.13987929       0.12711226      -0.13945751       0.21326885       0.08114512
S        4.75869603       4.30307208       4.51105494       31       0.07958045       0.23633412       0.03605516       0.13520464      -0.21531951      -0.08956664
32
Lattice="6.17176593 0.0 0.0 0.0 8.01859859 0.0 0.0 0.0 13.03281824" Properties=species:S:1:pos:R:3:spacegroup_kinds:I:1:momenta:R:3:forces:R:3 spacegroup="P 1" unit_cell=conventional occupancy="_JSON {\"0\": {\"Li\": 1}, \"1\": {\"Li\": 1}, \"2\": {\"Li\": 1}, \"3\": {\"Li\": 1}, \"4\": {\"Li\": 1}, \"5\": {\"Li\": 1}, \"6\": {\"Li\": 1}, \"7\": {\"Li\": 1}, \"8\": {\"Li\": 1}, \"9\": {\"Li\": 1}, \"10\": {\"Li\": 1}, \"11\": {\"Li\": 1}, \"12\": {\"P\": 1}, \"13\": {\"P\": 1}, \"14\": {\"P\": 1}, \"15\": {\"P\": 1}, \"16\": {\"S\": 1}, \"17\": {\"S\": 1}, \"18\": {\"S\": 1}, \"19\": {\"S\": 1}, \"20\": {\"S\": 1}, \"21\": {\"S\": 1}, \"22\": {\"S\": 1}, \"23\": {\"S\": 1}, \"24\": {\"S\": 1}, \"25\": {\"S\": 1}, \"26\": {\"S\": 1}, \"27\": {\"S\": 1}, \"28\": {\"S\": 1}, \"29\": {\"S\": 1}, \"30\": {\"S\": 1}, \"31\": {\"S\": 1}}" energy=-140.31997680664062 free_energy=-140.31997680664062 stress="-0.006708224769681692 0.00013357885472942144 -2.7877538741449825e-05 0.00013357885472942144 -0.008124209009110928 -7.417330925818533e-05 -2.7877538741449825e-05 -7.417330925818533e-05 -0.0052446224726736546" pbc="T T T"
Li       2.40379509       0.27348077       4.33456252        0      -0.09763655       0.14308893       0.05289836      -0.02651997      -0.00900347      -0.00961401
Li       3.76798145       7.75173017       8.69659829        1       0.01397888       0.07943167      -0.04210180       0.03056573      -0.00665941       0.00715142
Li       5.49554855       7.74942434       2.18207740        2       0.07456430      -0.02083771      -0.05975172      -0.03270726      -0.00879954       0.00293149
Li       0.68457863       0.26663516      10.84992354        3       0.01921404       0.02473789      -0.00037977       0.02624542       0.01219241      -0.00618383
Li       3.76646645       4.28138327       8.70084648        4      -0.01808078      -0.03102338       0.10370421       0.02626083      -0.00474603       0.00181630
Li       2.39979090       3.74377320       4.32843044        5      -0.03156726       0.10127903      -0.10927587      -0.01820737      -0.00295340       0.01277503
Li       0.68486411       3.73998229      10.85224387        6       0.11122475       0.04413080       0.11491901       0.01756423      -0.00250473      -0.00398343
Li       5.49803432       4.27708470       2.18091889        7       0.16942718      -0.06859887      -0.02680629      -0.04632496       0.01396034       0.00434543
Li       3.09149802      -0.00259532      -0.00592981        8       0.01084533      -0.02215694      -0.10864829      -0.01543826       0.00853137       0.01810627
Li       0.00348419       0.00203163       6.51435810        9       0.10144077       0.08213036       0.02139029      -0.00393667      -0.01078453       0.00446032
Li       3.08652633       3.99942928      -0.00268110       10       0.00761482      -0.16434532      -0.08836783       0.00930786       0.01098765       0.00728500
Li      -0.00767710       4.00548482       6.51781208       11      -0.15749257      -0.11589952       0.06495158       0.00122151      -0.00141803       0.00509385
P        0.93925470       2.00545986       1.16690025       12      -0.09873513       0.00131703       0.06207051      -0.01264975      -0.01856961       0.01373176
P        5.23130052       6.01473616      11.86688948       13      -0.09055478       0.18233992       0.10664523       0.01241340      -0.02935320       0.00323664
P        4.02718566       6.01458445       5.35032484       14       0.06735135       0.02476812      -0.06891879      -0.07965949       0.00638286      -0.01879371
P        2.14363321       2.00769608       7.67939825       15      -0.04417349       0.32889589      -0.36132094       0.07730609      -0.09563600       0.08884788
S        5.08782875       2.00360160       1.30411473       16      -0.06479691       0.11754740      -0.17135994      -0.23473261       0.00531876       0.02386113
S        1.08198105       6.01394476      11.72684357       17       0.12149168       0.11047026       0.05321196       0.25338009      -0.00361240      -0.01532222
S        2.00013463       6.01385639       5.21335047       18      -0.21130521      -0.12251878       0.28758235      -0.18470320       0.00609560      -0.02124909
S        4.17022452       2.00370190       7.82194782       19       0.31027211      -0.11347846      -0.05716623       0.19424999       0.01914394       0.00883570
S        1.68175052       2.00734586      12.26081190       20      -0.09908710       0.46466636       0.12024399       0.10304639      -0.00933571      -0.17260385
S        4.48836270       6.01524551       0.77409466       21      -0.36688625       0.03048551       0.22699913      -0.09336124      -0.01404816       0.15517473
S        4.76687701       6.01216475       7.29035164       22       0.00791659      -0.39950126       0.05331256       0.10948409       0.01113951       0.15560868
S        1.40396135       2.00442005       5.74264910       23      -0.19959617      -0.01060567      -0.20088696      -0.11571538       0.01354900      -0.18744913
S        1.67571770       0.29385624       2.00218926       24       0.22855439       0.13322848      -0.35687032       0.13415802      -0.21080515       0.09414341
S        4.49968464       7.72570289      11.02996504       25       0.07751859      -0.04957270       0.07629139      -0.13992152       0.23024987      -0.11659227
S        4.75712982       7.72683100       4.50943607       26      -0.09245519       0.16834986      -0.12057919       0.13817587       0.20506547      -0.07666131
S        1.41548430       0.28920282       8.52223282       27       0.07108716      -0.46648532       0.09629092      -0.12433366      -0.14496300       0.04944147
S        4.49875205       4.30178927      11.02810256       28      -0.01792446      -0.04419178       0.01494552      -0.12793070      -0.20188594      -0.08617356
S        1.67369023       3.71505786       2.00794577       29       0.13691216      -0.16578128       0.09673985       0.13892327       0.21788171       0.07275850
S        1.41176123       3.71423983       8.52326997       30      -0.10465741      -0.33583389       0.20210454      -0.14452234       0.23274162       0.08300345
S        4.75970577       4.30379194       4.51080357       31       0.16553516       0.09396341       0.01813253       0.12836169      -0.21816181      -0.09798246
32
Lattice="6.17176593 0.0 0.0 0.0 8.01859859 0.0 0.0 0.0 13.03281824" Properties=species:S:1:pos:R:3:spacegroup_kinds:I:1:momenta:R:3:forces:R:3 spacegroup="P 1" unit_cell=conventional occupancy="_JSON {\"0\": {\"Li\": 1}, \"1\": {\"Li\": 1}, \"2\": {\"Li\": 1}, \"3\": {\"Li\": 1}, \"4\": {\"Li\": 1}, \"5\": {\"Li\": 1}, \"6\": {\"Li\": 1}, \"7\": {\"Li\": 1}, \"8\": {\"Li\": 1}, \"9\": {\"Li\": 1}, \"10\": {\"Li\": 1}, \"11\": {\"Li\": 1}, \"12\": {\"P\": 1}, \"13\": {\"P\": 1}, \"14\": {\"P\": 1}, \"15\": {\"P\": 1}, \"16\": {\"S\": 1}, \"17\": {\"S\": 1}, \"18\": {\"S\": 1}, \"19\": {\"S\": 1}, \"20\": {\"S\": 1}, \"21\": {\"S\": 1}, \"22\": {\"S\": 1}, \"23\": {\"S\": 1}, \"24\": {\"S\": 1}, \"25\": {\"S\": 1}, \"26\": {\"S\": 1}, \"27\": {\"S\": 1}, \"28\": {\"S\": 1}, \"29\": {\"S\": 1}, \"30\": {\"S\": 1}, \"31\": {\"S\": 1}}" energy=-140.31976318359375 free_energy=-140.31976318359375 stress="-0.006420728750526905 0.0003308470768388361 -5.966091339359991e-05 0.0003308470768388361 -0.007998260669410229 -0.00018309292499907315 -5.966091339359991e-05 -0.00018309292499907315 -0.005081212613731623" pbc="T T T"
Li       2.39977777       0.27927768       4.33883774        0      -0.11142560       0.18325565       0.17620877      -0.01619835      -0.02800855      -0.02192744
Li       3.76619593       7.75416303       8.69410357        1      -0.08130396       0.08345198      -0.09842964       0.03555889      -0.01506703       0.00743068
Li       5.49529212       7.74788475       2.17950766        2      -0.10321005      -0.03186192      -0.12908826      -0.03056904      -0.00553261       0.00739141
Li       0.68750285       0.26684597      10.85033104        3       0.11192001       0.02593836       0.03991917       0.02366866       0.01381036      -0.00976512
Li       3.76759194       4.27929050       8.70447815        4       0.03692203      -0.09287147       0.02508966       0.02472292      -0.00348456      -0.00291696
Li       2.39883790       3.74787584       4.32690531        5      -0.03636062       0.16011564      -0.02235883      -0.01496409      -0.00749038       0.01410873
Li       0.68966232       3.74266263      10.85695766        6       0.18317820       0.06941064       0.18975442       0.00680210      -0.00149869      -0.00755979
Li       5.50385832       4.27618318       2.17975739        7       0.18978982      -0.02323645      -0.07288192      -0.05728498       0.02227138       0.00681604
Li       3.09238634      -0.00187447      -0.01070096        8      -0.02861466       0.00987322      -0.11897288      -0.02340855       0.01148535       0.02524443
Li       0.00682841       0.00568943       6.51517891        9       0.16647055       0.05835686       0.01800233      -0.01470125      -0.02489644       0.00524024
Li       3.08972068       3.99399600      -0.00642432       10       0.16651864      -0.14824868      -0.09529172       0.00518272       0.01209120       0.01989814
Li      -0.01401556       3.99981072       6.51842492       11      -0.20584376      -0.19677147       0.05888839      -0.00211695       0.00087644       0.01023294
P        0.93735461       2.00435365       1.16818575       12      -0.24287634      -0.20079474       0.13810100       0.02790876       0.01611264      -0.01934855
P        5.22961670       6.01644559      11.86782052       13      -0.22290186       0.27738314       0.12643657       0.04498379      -0.07418931       0.00440104
P        4.02708077       6.01549920       5.35028695       14      -0.10706960       0.14722375      -0.03277816      -0.06589541       0.00770288      -0.00002379
P        2.14320520       2.01130644       7.67593325       15      -0.03759325       0.44926907      -0.29663135       0.10594326      -0.20858394       0.14666259
S        5.08777579       2.00489232       1.30280603       16       0.04363481       0.14362196      -0.16909942      -0.25916958      -0.00368301       0.02981157
S        1.08293564       6.01484757      11.72779265       17       0.14199987       0.09167994       0.19945371       0.21302758      -0.00186512      -0.01051610
S        1.99971914       6.01210394       5.21560396       18       0.02754491      -0.32867628       0.15221224      -0.17625865       0.02014371      -0.02520175
S        4.17272801       2.00222597       7.82169238       19       0.25190966      -0.17355926       0.13327221       0.14967149       0.03335355      -0.00222521
S        1.68115920       2.01031970      12.26051382       20      -0.16707696       0.51528344      -0.16718816       0.09769832      -0.02273461      -0.15796724
S        4.48542076       6.01586814       0.77516109       21      -0.41009048       0.07286653       0.16462162      -0.08495837      -0.01961102       0.14325790
S        4.76721328       6.00900179       7.29212073       22       0.16117178      -0.40209092       0.29722159       0.10248448       0.02514610       0.12841135
S        1.40274783       2.00399255       5.74079653       23      -0.08864545      -0.17974935      -0.32492676      -0.11573742       0.03056434      -0.18892047
S        1.67734103       0.29510585       1.99960188       24       0.20237516       0.27763768      -0.36148230       0.13341334      -0.23585540       0.11422040
S        4.49989739       7.72544480      11.03013080       25      -0.10533150      -0.00699340      -0.01405674      -0.14239137       0.24552572      -0.12971976
S        4.75625784       7.72878440       4.50828454       26      -0.16860621       0.38509301      -0.14646646       0.12890147       0.19146185      -0.06296219
S        1.41667225       0.28579146       8.52282846       27       0.17275982      -0.35215710       0.11384727      -0.10133214      -0.06706260       0.00625631
S        4.49831492       4.29993171      11.02899140       28      -0.00705080      -0.40669936       0.10330095      -0.10571038      -0.17145133      -0.07541771
S        1.67438235       3.71405302       2.00851399       29       0.12356996      -0.11332708       0.17336108       0.14158642       0.21384071       0.06677066
S        1.41092381       3.71156701       8.52416663       30      -0.18286533      -0.43458420       0.04590419      -0.14996219       0.26062357       0.08356099
S        4.76167020       4.30493313       4.51066795       31       0.32710121       0.14116081      -0.10594254       0.11910450      -0.21399516      -0.10524333
32
Lattice="6.17176593 0.0 0.0 0.0 8.01859859 0.0 0.0 0.0 13.03281824" Properties=species:S:1:pos:R:3:spacegroup_kinds:I:1:momenta:R:3:forces:R:3 spacegroup="P 1" unit_cell=conventional occupancy="_JSON {\"0\": {\"Li\": 1}, \"1\": {\"Li\": 1}, \"2\": {\"Li\": 1}, \"3\": {\"Li\": 1}, \"4\": {\"Li\": 1}, \"5\": {\"Li\": 1}, \"6\": {\"Li\": 1}, \"7\": {\"Li\": 1}, \"8\": {\"Li\": 1}, \"9\": {\"Li\": 1}, \"10\": {\"Li\": 1}, \"11\": {\"Li\": 1}, \"12\": {\"P\": 1}, \"13\": {\"P\": 1}, \"14\": {\"P\": 1}, \"15\": {\"P\": 1}, \"16\": {\"S\": 1}, \"17\": {\"S\": 1}, \"18\": {\"S\": 1}, \"19\": {\"S\": 1}, \"20\": {\"S\": 1}, \"21\": {\"S\": 1}, \"22\": {\"S\": 1}, \"23\": {\"S\": 1}, \"24\": {\"S\": 1}, \"25\": {\"S\": 1}, \"26\": {\"S\": 1}, \"27\": {\"S\": 1}, \"28\": {\"S\": 1}, \"29\": {\"S\": 1}, \"30\": {\"S\": 1}, \"31\": {\"S\": 1}}" energy=-140.318115234375 free_energy=-140.318115234375 stress="-0.006155975628644228 0.000551426550373435 -8.551943756174296e-05 0.000551426550373435 -0.007869725115597248 -0.00033113069366663694 -8.551943756174296e-05 -0.00033113069366663694 -0.004724788945168257" pbc="T T T"
Li       2.39499644       0.28547906       4.34435071        0      -0.17149708       0.16123836       0.17905730      -0.00316498      -0.04945587      -0.03693545
Li       3.76477055       7.75570814       8.68996979        1      -0.03514183       0.02619582      -0.13526254       0.03864257      -0.02023970       0.01088132
Li       5.49265524       7.74897400       2.17399750        2      -0.06189562       0.01708342      -0.18170897      -0.02578212      -0.00676962       0.01776833
Li       0.69257024       0.26680494      10.85235078        3       0.08286572      -0.00545138       0.01382317       0.01542417       0.01552379      -0.01699614
Li       3.76901073       4.27526197       8.70381732        4       0.11223600      -0.12192168       0.03085089       0.02218137       0.00305768       0.00293950
Li       2.39846406       3.75095482       4.32322657        5      -0.02844124       0.07186916      -0.15025093      -0.01307532      -0.01137855       0.02039361
Li       0.69546040       3.74901767      10.86040490        6       0.16272091       0.26001519       0.06483918      -0.00124818      -0.00918755      -0.00872318
Li       5.51047537       4.27571252       2.17724510        7       0.13366330      -0.00929040      -0.01955630      -0.07150010       0.03037085       0.01236519
Li       3.08958858      -0.00302355      -0.01713362        8      -0.12832537      -0.03571137      -0.21745317      -0.02996971       0.01264404       0.03246564
Li       0.01223528       0.00667707       6.51427710        9       0.11495161      -0.01504555      -0.08477743      -0.02152962      -0.03801841       0.00822659
Li       3.09615037       3.98834491      -0.00742499       10       0.13879974      -0.13201116      -0.00595022      -0.00038905       0.00932442       0.03011332
Li      -0.02043399       3.99159394       6.51816193       11      -0.16172381      -0.27930855      -0.06950405      -0.00610479       0.00451683       0.01418399
P        0.93590721       2.00358752       1.17005138       12      -0.22547410       0.05299704       0.29509741       0.06543063       0.05069260      -0.07116675
P        5.22809198       6.01748454      11.86829728       13      -0.13375894       0.04822138       0.06887399       0.06482694      -0.10695733       0.01112093
P        4.02763782       6.01629541       5.35026019       14       0.17928693       0.12106822       0.03091149      -0.06284878       0.01771559       0.02047705
P        2.14322503       2.01571940       7.67320701       15       0.02796996       0.58927817      -0.40853555       0.11416246      -0.33261526       0.18323031
S        5.08754049       2.00515620       1.30216315       16      -0.01655875       0.02375865      -0.15493823      -0.27522433      -0.00365712       0.03245055
S        1.08442307       6.01534778      11.72949409       17       0.22792479      -0.03180201       0.30233251       0.16840446       0.00473936      -0.00516717
S        1.99937167       6.01023297       5.21552163       18      -0.07686492      -0.07048825      -0.02257528      -0.15912092       0.03185377      -0.02440275