32
Lattice="6.17176593 0.0 0.0 0.0 8.01859859 0.0 0.0 0.0 13.03281824" Properties=species:S:1:pos:R:3:spacegroup_kinds:I:1:forces:R:3 spacegroup="P 1" unit_cell=conventional occupancy="_JSON {\"0\": {\"Li\": 1}, \"1\": {\"Li\": 1}, \"2\": {\"Li\": 1}, \"3\": {\"Li\": 1}, \"4\": {\"Li\": 1}, \"5\": {\"Li\": 1}, \"6\": {\"Li\": 1}, \"7\": {\"Li\": 1}, \"8\": {\"Li\": 1}, \"9\": {\"Li\": 1}, \"10\": {\"Li\": 1}, \"11\": {\"Li\": 1}, \"12\": {\"P\": 1}, \"13\": {\"P\": 1}, \"14\": {\"P\": 1}, \"15\": {\"P\": 1}, \"16\": {\"S\": 1}, \"17\": {\"S\": 1}, \"18\": {\"S\": 1}, \"19\": {\"S\": 1}, \"20\": {\"S\": 1}, \"21\": {\"S\": 1}, \"22\": {\"S\": 1}, \"23\": {\"S\": 1}, \"24\": {\"S\": 1}, \"25\": {\"S\": 1}, \"26\": {\"S\": 1}, \"27\": {\"S\": 1}, \"28\": {\"S\": 1}, \"29\": {\"S\": 1}, \"30\": {\"S\": 1}, \"31\": {\"S\": 1}}" energy=-140.31869506835938 free_energy=-140.31869506835938 stress="-0.007170632015913725 -5.995943741510246e-09 -5.902891064835103e-09 -5.995943741510246e-09 -0.008259423077106476 -6.415683984073439e-09 -5.902891064835103e-09 -6.415683984073439e-09 -0.005266329273581505" pbc="T T T"
Li       2.40329652       0.26860172       4.33400832        0      -0.02603564       0.00549156      -0.00432103
Li       3.76846941       7.74999687       8.69880992        1       0.02603681      -0.00549211       0.00432251
Li       5.48917948       7.74999687       2.18240080        2      -0.02603616      -0.00549096       0.00432323
Li       0.68258645       0.26860172      10.85041744        3       0.02603586       0.00549203      -0.00431959
Li       3.76846941       4.27790102       8.69880992        4       0.02603651       0.00549170       0.00432204
Li       2.40329652       3.74069757       4.33400832        5      -0.02603568      -0.00549135      -0.00432122
Li       0.68258645       3.74069757      10.85041744        6       0.02603592      -0.00549190      -0.00431981
Li       5.48917948       4.27790102       2.18240080        7      -0.02603647       0.00549090       0.00432258
Li       3.08588297       0.00000000       0.00000000        8      -0.00000062      -0.00000221      -0.00000004
Li       0.00000000       0.00000000       6.51640912        9      -0.00000055       0.00000067      -0.00000017
Li       3.08588297       4.00929929       0.00000000       10       0.00000011       0.00000082       0.00000046
Li       0.00000000       4.00929929       6.51640912       11       0.00000044      -0.00000038      -0.00000050
P        0.94051010       2.00464965       1.16601784       12      -0.02067173       0.00000007       0.02376066
P        5.23125583       6.01394894      11.86680040       13       0.02066659      -0.00000011      -0.02375958
P        4.02639307       6.01394894       5.35039128       14      -0.02066758       0.00000010      -0.02375712
P        2.14537286       2.00464965       7.68242696       15       0.02066810       0.00000126       0.02375701
S        5.08970823       2.00464965       1.30575389       16      -0.25450641       0.00000010       0.01679038
S        1.08205770       6.01394894      11.72706435       17       0.25450742      -0.00000053      -0.01679174
S        2.00382526       6.01394894       5.21065523       18      -0.25450549      -0.00000175      -0.01679202
S        4.16794067       2.00464965       7.82216301       19       0.25450075       0.00000019       0.01679052
S        1.68132889       2.00464965      12.25955363       20       0.10912228       0.00000004      -0.16719499
S        4.49043704       6.01394894       0.77326461       21      -0.10912062      -0.00000001       0.16718128
S        4.76721186       6.01394894       7.28967373       22       0.10912073      -0.00000008       0.16717950
S        1.40455407       2.00464965       5.74314451       23      -0.10911937       0.00000014      -0.16718045
S        1.67233151       0.29287049       2.00524453       24       0.13957831      -0.21272546       0.08709881
S        4.49943442       7.72572810      11.02757371       25      -0.13957529       0.21272472      -0.08709179
S        4.75821447       7.72572810       4.51116459       26       0.13957539       0.21272558      -0.08709183
S        1.41355146       0.29287049       8.52165365       27      -0.13957545      -0.21271992       0.08709108
S        4.49943442       4.30216979      11.02757371       28      -0.13957743      -0.21272431      -0.08709484
S        1.67233151       3.71642880       2.00524453       29       0.13957845       0.21272698       0.08709970
S        1.41355146       3.71642880       8.52165365       30      -0.13957603       0.21271996       0.08709009
S        4.75821447       4.30216979       4.51116459       31       0.13957700      -0.21272564      -0.08709332
