32
Lattice="6.17176593 0.0 0.0 0.0 8.01859859 0.0 0.0 0.0 13.03281824" Properties=species:S:1:pos:R:3:spacegroup_kinds:I:1:forces:R:3 spacegroup="P 1" unit_cell=conventional occupancy="_JSON {\"0\": {\"Li\": 1}, \"1\": {\"Li\": 1}, \"2\": {\"Li\": 1}, \"3\": {\"Li\": 1}, \"4\": {\"Li\": 1}, \"5\": {\"Li\": 1}, \"6\": {\"Li\": 1}, \"7\": {\"Li\": 1}, \"8\": {\"Li\": 1}, \"9\": {\"Li\": 1}, \"10\": {\"Li\": 1}, \"11\": {\"Li\": 1}, \"12\": {\"P\": 1}, \"13\": {\"P\": 1}, \"14\": {\"P\": 1}, \"15\": {\"P\": 1}, \"16\": {\"S\": 1}, \"17\": {\"S\": 1}, \"18\": {\"S\": 1}, \"19\": {\"S\": 1}, \"20\": {\"S\": 1}, \"21\": {\"S\": 1}, \"22\": {\"S\": 1}, \"23\": {\"S\": 1}, \"24\": {\"S\": 1}, \"25\": {\"S\": 1}, \"26\": {\"S\": 1}, \"27\": {\"S\": 1}, \"28\": {\"S\": 1}, \"29\": {\"S\": 1}, \"30\": {\"S\": 1}, \"31\": {\"S\": 1}}" energy=-140.3463134765625 free_energy=-140.3463134765625 stress="-0.0028886371292173862 -1.767372248551169e-09 -9.639848919107408e-09 -1.767372248551169e-09 -0.004072280600667 2.0417280310880415e-08 -9.639848919107408e-09 2.0417280310880415e-08 -0.002593635581433773" pbc="T T T"
Li       2.40166815       0.26892254       4.33377962        0      -0.01548951       0.00236009       0.00063573
Li       3.77009791       7.74967601       8.69903849        1       0.01548951      -0.00236025      -0.00063196
Li       5.48755103       7.74967603       2.18262943        2      -0.01549385      -0.00236104      -0.00063194
Li       0.68421471       0.26892243      10.85018875        3       0.01549476       0.00236396       0.00063290
Li       3.77009786       4.27822188       8.69903839        4       0.01548731       0.00235801      -0.00063467
Li       2.40166816       3.74037676       4.33377962        5      -0.01549016      -0.00236064       0.00063379
Li       0.68421482       3.74037680      10.85018872        6       0.01549180      -0.00236111       0.00063173
Li       5.48755101       4.27822190       2.18262937        7      -0.01549121       0.00235951      -0.00062992
Li       3.08588288      -0.00000017       0.00000009        8      -0.00000001       0.00000233      -0.00000065
Li       0.00000003      -0.00000007       6.51640918        9       0.00000156       0.00000179       0.00000035
Li       3.08588298       4.00929949       0.00000014       10      -0.00000204      -0.00000236       0.00000099
Li       0.00000004       4.00929930       6.51640920       11      -0.00000046      -0.00000154      -0.00000096
P        0.93932958       2.00464922       1.16793467       12      -0.00066793       0.00001508       0.03303283
P        5.23243626       6.01394877      11.86488428       13       0.00067305       0.00000388      -0.03305410
P        4.02521219       6.01394897       5.34847529       14      -0.00065304       0.00000186      -0.03306438
P        2.14655383       2.00464975       7.68434321       15       0.00065227      -0.00000008       0.03305182
S        5.07612368       2.00464970       1.30682514       16       0.00280187      -0.00000098       0.01274823
S        1.09564248       6.01394890      11.72599305       17      -0.00280966      -0.00000015      -0.01274718
S        1.99024105       6.01394884       5.20958384       18       0.00279299       0.00000090      -0.01274406
S        4.18152504       2.00464963       7.82323413       19      -0.00279161      -0.00000040       0.01274949
S        1.68772171       2.00464970      12.25093571       20       0.03397134      -0.00000168       0.02524762
S        4.48404412       6.01394886       0.78188259       21      -0.03397287       0.00000070      -0.02524002
S        4.77360471       6.01394895       7.29829155       22       0.03397125       0.00000069      -0.02523927
S        1.39816137       2.00464969       5.73452693       23      -0.03397327      -0.00000034       0.02524074
S        1.68016698       0.28147994       2.00960382       24       0.02273693      -0.00260076      -0.01691530
S        4.49159896       7.73711927      11.02321404       25      -0.02272899       0.00258566       0.01692467
S        4.76604989       7.73711924       4.50680506       26       0.02272888       0.00258173       0.01693010
S        1.40571579       0.28147954       8.52601308       27      -0.02272858      -0.00258555      -0.01692859
S        4.49159897       4.29077893      11.02321423       28      -0.02273208      -0.00259033       0.01692279
S        1.68016706       3.72781967       2.00960389       29       0.02272988       0.00258596      -0.01692348
S        1.40571581       3.72781971       8.52601309       30      -0.02272734       0.00258695      -0.01692716
S        4.76604991       4.29077866       4.50680500       31       0.02272955      -0.00258197       0.01692994
