13
Lattice="7.26870274 0.0 0.0 3.634351370000001 6.294881225397555 0.0 3.634351370000001 2.0982937417991856 5.934870934989993" Properties=species:S:1:pos:R:3:spacegroup_kinds:I:1:forces:R:3 spacegroup="P 1" unit_cell=conventional occupancy="_JSON {\"0\": {\"Li\": 1}, \"1\": {\"Li\": 1}, \"2\": {\"Li\": 1}, \"3\": {\"Li\": 1}, \"4\": {\"Li\": 1}, \"5\": {\"Li\": 1}, \"6\": {\"P\": 1}, \"7\": {\"S\": 1}, \"8\": {\"S\": 1}, \"9\": {\"S\": 1}, \"10\": {\"S\": 1}, \"11\": {\"S\": 1}, \"12\": {\"Cl\": 1}}" energy=-53.3634147644043 free_energy=-53.3634147644043 stress="-0.0007942088996060193 -2.299480712508739e-07 -1.6246180223333795e-07 -2.299480712508739e-07 -0.0007939420756883919 -1.0702954966745892e-07 -1.6246180223333795e-07 -1.0702954966745892e-07 -0.0007939037750475109" pbc="T T T"
Li       9.25387995       7.24703237       3.10460814        0       0.00422604      -0.00243468       0.00344805
Li      12.55222827       5.34273008       5.79769826        1      -0.00421104       0.00243297      -0.00344142
Li       9.25387995       5.34273008       5.79769826        2       0.00422473       0.00243855      -0.00344659
Li      12.55222827       7.24703237       3.10460814        3      -0.00421198      -0.00243096       0.00344126
Li      10.90305411       4.39057894       3.10460814        4       0.00000258       0.00487659       0.00344795
Li      10.90305411       8.19918351       5.79769826        5       0.00000202      -0.00486370      -0.00344163
P        7.26870274       4.19658748       2.96743547        6       0.00008528       0.00004623       0.00003615
S        7.26870637       6.13578650       2.28182731        7      -0.00001827      -0.01090968       0.00384730
S        8.94810016       3.22699113       2.28182731        8      -0.00945798       0.00544039       0.00384704
S        5.58931258       3.22699113       2.28182731        9       0.00937837       0.00541288       0.00383028
S        7.26870637       4.19658958       5.02426588       10      -0.00001912      -0.00000921      -0.01156946
S       10.90305411       6.29488123       4.45115320       11      -0.00000160      -0.00000097      -0.00000023
Cl       0.00000000       0.00000000       0.00000000       12       0.00000099       0.00000162       0.00000133
