13
Lattice="7.26870274 0.0 0.0 3.634351370000001 6.294881225397555 0.0 3.634351370000001 2.0982937417991856 5.934870934989993" Properties=species:S:1:pos:R:3:spacegroup_kinds:I:1:momenta:R:3:forces:R:3 spacegroup="P 1" unit_cell=conventional occupancy="_JSON {\"0\": {\"Li\": 1}, \"1\": {\"Li\": 1}, \"2\": {\"Li\": 1}, \"3\": {\"Li\": 1}, \"4\": {\"Li\": 1}, \"5\": {\"Li\": 1}, \"6\": {\"P\": 1}, \"7\": {\"S\": 1}, \"8\": {\"S\": 1}, \"9\": {\"S\": 1}, \"10\": {\"S\": 1}, \"11\": {\"S\": 1}, \"12\": {\"Cl\": 1}}" energy=-53.683345794677734 free_energy=-53.683345794677734 stress="0.007555427495390177 0.002774806460365653 0.0021149697713553905 0.002774806460365653 0.006546026561409235 0.001373552018776536 0.0021149697713553905 0.001373552018776536 0.01021383423358202" pbc="T T T"
Li       8.75122354       7.13085143       3.52630832        0      -0.67624617       0.08296208      -0.45499173      -0.04176512       0.03270123      -0.17528522
Li      12.31421509       6.76259101       6.33128760        1      -0.38272185      -0.10444753       0.69799966       0.09754974      -0.26299408      -0.04919358
Li       9.14376062       5.97876908       5.92637988        2      -0.00236972       0.06963430       0.19766503      -0.32019126      -0.17213392       0.21906331
Li      12.02178814       7.03732423       2.43375862        3      -1.12617890       0.06542734       0.06198130       0.09374491      -0.09192707      -0.01106475
Li      11.49863672       3.93967564       4.13841903        4       0.79989306       0.04527633       0.32059530      -0.19933066       0.18161958       0.08907848
Li      10.37942379       8.41657452       5.24655766        5       0.07668263       0.11166991      -0.18128962      -0.13591066       0.03160167       0.27837396
P        7.24655009       4.17400132       3.02867301        6      -0.59925991      -1.40357334       0.64318780      -0.68280661       0.08167968      -0.38669944
S        7.21195543       6.02769732       2.01509680        7       0.39820693       2.33495054      -0.89484200      -0.05458938      -0.15178052       0.10774852
S        8.97349885       3.26419320       2.53011219        8       1.44607456      -0.01045257      -0.17402264       0.32398269      -0.25765321      -0.28640619
S        5.57807233       3.07858216       2.25744436        9       0.43599159      -0.97575307       0.33528196       0.57476330       0.20518585       0.66828775
S        7.10372085       4.44177530       5.06392628       10       0.04188859      -0.83041944       0.10253617      -0.11959518       0.18011004      -0.24529263
S       10.80724176       6.28929481       4.39596130       11       1.09900041      -0.73435517       0.19999080       0.32398668       0.08662838      -0.00940546
Cl       0.55066523      -0.29175845      -0.17655687       12      -1.51096122       1.34908061      -0.85409203       0.14016151       0.13696231      -0.19920491
