13
Lattice="7.26870274 0.0 0.0 3.634351370000001 6.294881225397555 0.0 3.634351370000001 2.0982937417991856 5.934870934989993" Properties=species:S:1:pos:R:3:spacegroup_kinds:I:1:momenta:R:3:forces:R:3 spacegroup="P 1" unit_cell=conventional occupancy="_JSON {\"0\": {\"Li\": 1}, \"1\": {\"Li\": 1}, \"2\": {\"Li\": 1}, \"3\": {\"Li\": 1}, \"4\": {\"Li\": 1}, \"5\": {\"Li\": 1}, \"6\": {\"P\": 1}, \"7\": {\"S\": 1}, \"8\": {\"S\": 1}, \"9\": {\"S\": 1}, \"10\": {\"S\": 1}, \"11\": {\"S\": 1}, \"12\": {\"Cl\": 1}}" energy=-53.3634147644043 free_energy=-53.3634147644043 stress="-0.0007942226366139948 -2.4041759161264054e-07 -1.579987269906269e-07 -2.4041759161264054e-07 -0.0007939395727589726 -1.0886991219649644e-07 -1.579987269906269e-07 -1.0886991219649644e-07 -0.0007939310162328184" pbc="T T T"
Li       9.25387995       7.24703237       3.10460814        0       0.61759454       0.12777238       0.52543789       0.00422578      -0.00243448       0.00344809
Li      12.55222827       5.34273008       5.79769826        1       0.93521627       0.77395973      -0.49991849      -0.00421090       0.00243290      -0.00344119
Li       9.25387995       5.34273008       5.79769826        2       0.34956142      -0.19310427      -0.01541521       0.00422481       0.00243911      -0.00344701
Li      12.55222827       7.24703237       3.10460814        3       0.00351499       0.06262631       0.65326315      -0.00421171      -0.00243068       0.00344050
Li      10.90305411       4.39057894       3.10460814        4       0.20672960       0.02694940       0.16385970       0.00000246       0.00487579       0.00344799
Li      10.90305411       8.19918351       5.79769826        5       0.02567056       0.57897950      -0.03069924       0.00000209      -0.00486358      -0.00344159
P        7.26870274       4.19658748       2.96743547        6      -0.32125725      -1.17979168      -2.20485076       0.00008575       0.00004571       0.00003619
S        7.26870637       6.13578650       2.28182731        7      -0.22883769       0.55226995      -0.23801989      -0.00001854      -0.01090947       0.00384793
S        8.94810016       3.22699113       2.28182731        8       1.55518213      -1.58888104      -0.02898362      -0.00945862       0.00544079       0.00384729
S        5.58931258       3.22699113       2.28182731        9      -0.84076643       1.08393231       1.77292868       0.00937808       0.00541276       0.00383039
S        7.26870637       4.19658958       5.02426588       10      -0.23871757      -0.25427552      -0.61502766      -0.00001905      -0.00000953      -0.01156931
S       10.90305411       6.29488123       4.45115320       11      -2.54207087      -0.63298892       0.20988232      -0.00000171      -0.00000058      -0.00000049
Cl       0.00000000       0.00000000       0.00000000       12       0.47818031       0.64255185       0.30754313       0.00000151       0.00000133       0.00000117
13
Lattice="7.26870274 0.0 0.0 3.634351370000001 6.294881225397555 0.0 3.634351370000001 2.0982937417991856 5.934870934989993" Properties=species:S:1:pos:R:3:spacegroup_kinds:I:1:momenta:R:3:forces:R:3 spacegroup="P 1" unit_cell=conventional occupancy="_JSON {\"0\": {\"Li\": 1}, \"1\": {\"Li\": 1}, \"2\": {\"Li\": 1}, \"3\": {\"Li\": 1}, \"4\": {\"Li\": 1}, \"5\": {\"Li\": 1}, \"6\": {\"P\": 1}, \"7\": {\"S\": 1}, \"8\": {\"S\": 1}, \"9\": {\"S\": 1}, \"10\": {\"S\": 1}, \"11\": {\"S\": 1}, \"12\": {\"Cl\": 1}}" energy=-53.18207931518555 free_energy=-53.18207931518555 stress="0.0014753021532669663 -0.0025962688960134983 -0.000954270944930613 -0.0025962688960134983 -0.0023267425131052732 0.0021626001689583063 -0.000954270944930613 0.0021626001689583063 -0.0008748456020839512" pbc="T T T"
Li       9.28435064       7.33940883       3.21352285        0      -0.04378122       0.59059909       0.38651955      -0.40249792      -0.04868722      -0.16927934
Li      12.68534889       5.50383628       5.70265783        1       0.52272238       0.76572990      -0.47560640      -0.03771922       0.07949527       0.23459892
Li       9.29994519       5.33472419       5.85912769        2       0.05158308       0.06087746       0.39081970      -0.25841197      -0.18797937      -0.06619023
Li      12.51393477       7.26910464       3.22438963        3      -0.17547234       0.17148931       0.45035364       0.19508567      -0.02690646      -0.15936849
Li      10.93997592       4.36881675       3.14846685        4       0.14344119      -0.30836403       0.21829004      -0.25582314       0.04196019       0.05838825
Li      10.88685480       8.29087079       5.79810131        5      -0.49091334       0.22490097      -0.04728824      -0.05873350      -0.39760834       0.00459434
P        7.26372164       4.17442358       2.89905555        6       0.36890643      -0.11608451      -0.85933213       1.15233696       0.40076095       0.76477611
S        7.25914555       6.13609015       2.28054893        7      -0.07219596      -0.48268904       0.08806791       0.08043091      -0.00573068       0.03486510
S        9.01744207       3.18282168       2.28414821        8       1.82759029      -0.43627686      -0.23768901      -0.79508328       0.30481556      -0.11939320
S        5.55885806       3.28194247       2.30972639        9      -0.73109080       1.05207654       0.25248502      -0.21776669      -0.57267690      -0.39397490
S        7.26080373       4.17614176       4.99083816       10      -0.06382115      -0.55353725      -0.75307377       0.17704639       0.19058040      -0.34522110
S       10.82304028       6.25278339       4.45558831       11      -1.95612191      -1.00561608      -0.07325107       0.51390225       0.35240108       0.29399326
Cl       0.01960093      -0.00040428       0.01341188       12       0.61915335       0.03689450       0.65970475      -0.09276651      -0.13042444      -0.13778880
13
Lattice="7.26870274 0.0 0.0 3.634351370000001 6.294881225397555 0.0 3.634351370000001 2.0982937417991856 5.934870934989993" Properties=species:S:1:pos:R:3:spacegroup_kinds:I:1:momenta:R:3:forces:R:3 spacegroup="P 1" unit_cell=conventional occupancy="_JSON {\"0\": {\"Li\": 1}, \"1\": {\"Li\": 1}, \"2\": {\"Li\": 1}, \"3\": {\"Li\": 1}, \"4\": {\"Li\": 1}, \"5\": {\"Li\": 1}, \"6\": {\"P\": 1}, \"7\": {\"S\": 1}, \"8\": {\"S\": 1}, \"9\": {\"S\": 1}, \"10\": {\"S\": 1}, \"11\": {\"S\": 1}, \"12\": {\"Cl\": 1}}" energy=-53.113197326660156 free_energy=-53.113197326660156 stress="0.00581399304792285 -0.0022476136218756437 -0.0005702885682694614 -0.0022476136218756437 -0.0029567743185907602 0.0030550325755029917 -0.0005702885682694614 0.0030550325755029917 -0.0035163029097020626" pbc="T T T"
Li       9.23049292       7.40877208       3.26928362        0      -0.55531382       0.03282417       0.30111968      -0.35666746      -0.20605226      -0.09190414
Li      12.73034482       5.61712705       5.62663909        1       0.13729816       0.61546339      -0.05709892       0.07558190      -0.01192727       0.36546826
Li       9.26103343       5.35441229       5.86189867        2      -0.80442329       0.33133847      -0.07282745      -0.31993115      -0.22912601       0.07335801
Li      12.52208335       7.30830336       3.26749539        3       0.17701533       0.46911242      -0.09230468       0.08966398      -0.10572329      -0.16108134
Li      10.97210253       4.35583719       3.15062263        4      -0.03964744       0.00711470      -0.11594429      -0.41272539       0.14149457       0.11158901
Li      10.78214098       8.26314138       5.76148878        5      -0.57313449      -0.48829056      -0.45817947      -0.12841475      -0.32862815       0.13608086
P        7.30235120       4.18132708       2.89333478        6       1.12221299       0.37591425       0.17316477       0.64767390       0.05920041       0.31880200
S        7.24535609       6.13611439       2.27715412        7      -0.19172765       0.30118680      -0.42760812       0.14132258       0.07165007      -0.03242143
S        9.05086182       3.17365099       2.26398079        8       0.15154321       0.56125678      -0.18293470      -0.91554976       0.44549644      -0.17014533
S        5.54457084       3.28867450       2.33215821        9       0.11262857      -0.51664197       0.73517275       0.38983098      -0.39918822      -0.49949127
S        7.27097833       4.14815754       4.95594180       10       0.14319954      -0.60735962      -0.89246322       0.17153311       0.26870495       0.10033675
S       10.77484522       6.22655680       4.46176806       11      -0.56601840      -0.44443649       0.20631119       0.65593195       0.55831945       0.09852536
Cl       0.03750526       0.00595819       0.04670832       12       0.88636727      -0.63748232       0.88359245      -0.03824995      -0.26422077      -0.24911676
13
Lattice="7.26870274 0.0 0.0 3.634351370000001 6.294881225397555 0.0 3.634351370000001 2.0982937417991856 5.934870934989993" Properties=species:S:1:pos:R:3:spacegroup_kinds:I:1:momenta:R:3:forces:R:3 spacegroup="P 1" unit_cell=conventional occupancy="_JSON {\"0\": {\"Li\": 1}, \"1\": {\"Li\": 1}, \"2\": {\"Li\": 1}, \"3\": {\"Li\": 1}, \"4\": {\"Li\": 1}, \"5\": {\"Li\": 1}, \"6\": {\"P\": 1}, \"7\": {\"S\": 1}, \"8\": {\"S\": 1}, \"9\": {\"S\": 1}, \"10\": {\"S\": 1}, \"11\": {\"S\": 1}, \"12\": {\"Cl\": 1}}" energy=-53.191925048828125 free_energy=-53.191925048828125 stress="0.0036536692641675472 2.38972861552611e-05 -0.0013945287792012095 2.38972861552611e-05 -0.003741697408258915 -0.0006462688907049596 -0.0013945287792012095 -0.0006462688907049596 -0.005739986430853605" pbc="T T T"
Li       9.16259470       7.41475855       3.32762449        0      -0.29166487      -0.00219302       0.61630860      -0.32775563      -0.23698433      -0.07089850
Li      12.76122089       5.70575716       5.64210936        1       0.26888061       0.53793084       0.21780076       0.11980341      -0.00957991       0.25921127
Li       9.10278754       5.37126526       5.88021506        2      -1.27411918      -0.14139344       0.18709901       0.12448160       0.08950384      -0.04936460
Li      12.55777844       7.35495969       3.21128427        3       0.32219839       0.24676143      -0.57243603      -0.10419233      -0.35919362       0.02276186
Li      10.96528467       4.38303686       3.15339165        4      -0.24024735       0.06809047       0.06038157      -0.27850536       0.09551092       0.02559036
Li      10.70926790       8.15350804       5.69771644        5      -0.30985426      -0.68083987      -0.29770465      -0.13425332       0.29666317       0.41051400
P        7.34326922       4.18153069       2.89555110        6       1.61663007      -0.25915655       0.44266994      -0.41996527       0.55300951       0.12766875
S        7.22689834       6.14123164       2.24937249        7      -0.35021481      -0.15659230      -0.52540834       0.28295726      -0.10275373      -0.01710639
S        9.01326698       3.19348652       2.25046404        8      -1.11396750       0.43384053      -0.66607969      -0.03950432       0.22620472      -0.42008787
S        5.57220697       3.27298653       2.35563745        9       1.11844397      -0.81516956       0.19523520       0.29543942      -0.31527740      -0.46712843
S        7.28784677       4.14851104       4.93534297       10       0.21885291       0.61135331      -0.10061944       0.00001077       0.01861242       0.51117140
S       10.77317024       6.24237335       4.48514609       11      -0.24730509       1.00945072       0.84000288       0.43938500       0.15899161      -0.03845941
Cl       0.06009381      -0.03250495       0.06298564       12       0.28236708      -0.85208256      -0.39724981       0.04209878      -0.41470730      -0.29387245
13
Lattice="7.26870274 0.0 0.0 3.634351370000001 6.294881225397555 0.0 3.634351370000001 2.0982937417991856 5.934870934989993" Properties=species:S:1:pos:R:3:spacegroup_kinds:I:1:momenta:R:3:forces:R:3 spacegroup="P 1" unit_cell=conventional occupancy="_JSON {\"0\": {\"Li\": 1}, \"1\": {\"Li\": 1}, \"2\": {\"Li\": 1}, \"3\": {\"Li\": 1}, \"4\": {\"Li\": 1}, \"5\": {\"Li\": 1}, \"6\": {\"P\": 1}, \"7\": {\"S\": 1}, \"8\": {\"S\": 1}, \"9\": {\"S\": 1}, \"10\": {\"S\": 1}, \"11\": {\"S\": 1}, \"12\": {\"Cl\": 1}}" energy=-53.03642272949219 free_energy=-53.03642272949219 stress="0.0006893333629705012 0.0027413624338805676 -0.001890944899059832 0.0027413624338805676 -0.008187023922801018 -0.0037556514143943787 -0.001890944899059832 -0.0037556514143943787 -0.006091135088354349" pbc="T T T"
Li       9.05879290       7.35715386       3.44865347        0      -0.96642519      -0.09037530       0.53742605      -0.32045552       0.07103318      -0.16814998
Li      12.89388479       5.80450133       5.66753923        1       0.83199488       0.59687034       0.06710013      -0.18689021       0.22275993       0.03387684
Li       8.91349985       5.36792453       5.86816593        2      -0.84980129      -0.01984007       0.06735428       0.98155153       0.65855694       0.23705648
Li      12.60043608       7.35086774       3.05726685        3       0.15662166      -0.24666956      -1.06959717      -0.44634706      -0.49676508       0.26496679
Li      10.93273441       4.34389490       3.10317838        4      -0.18655957      -0.21119497      -0.58921981      -0.10978084       0.41750711       0.24698167
Li      10.63827648       8.07282579       5.70208549        5      -0.34951001       0.02609006       0.14163373      -0.13913266       0.88265979       0.66710830
P        7.38052012       4.19694384       2.91881775        6       0.21411857       0.61352405       0.85599817      -1.70846415       0.26309916       0.00195877
S        7.22527774       6.12237680       2.23952098        7       0.59583508      -0.62718229       0.00417001       0.44495440       0.18162221      -0.07909679
S        8.97095826       3.21504509       2.20633468        8      -0.92868384       0.75448183      -1.07900150       0.67602646      -0.04904539      -0.49515834
S        5.59388669       3.24789941       2.35879669        9       0.63391250      -0.72609254       0.58169026       0.54130548      -0.21378587      -0.16602297
S        7.31663562       4.17994902       4.95691403       10       0.77147573       0.03172885      -0.00010998      -0.44629636      -0.57858062       0.20652288
S       10.77120583       6.28730417       4.51504730       11      -0.20544057       1.09662998       0.58647907       0.55971104      -0.75371951      -0.42956573
Cl       0.06676264      -0.07816055       0.05464825       12       0.28246205      -1.19797037      -0.10392324       0.15381801      -0.60534185      -0.32047784
13
Lattice="7.26870274 0.0 0.0 3.634351370000001 6.294881225397555 0.0 3.634351370000001 2.0982937417991856 5.934870934989993" Properties=species:S:1:pos:R:3:spacegroup_kinds:I:1:momenta:R:3:forces:R:3 spacegroup="P 1" unit_cell=conventional occupancy="_JSON {\"0\": {\"Li\": 1}, \"1\": {\"Li\": 1}, \"2\": {\"Li\": 1}, \"3\": {\"Li\": 1}, \"4\": {\"Li\": 1}, \"5\": {\"Li\": 1}, \"6\": {\"P\": 1}, \"7\": {\"S\": 1}, \"8\": {\"S\": 1}, \"9\": {\"S\": 1}, \"10\": {\"S\": 1}, \"11\": {\"S\": 1}, \"12\": {\"Cl\": 1}}" energy=-53.275909423828125 free_energy=-53.275909423828125 stress="0.005657443776726723 -0.001683380687609315 -0.004884916823357344 -0.001683380687609315 -0.006275673396885395 0.0005315059679560363 -0.004884916823357344 0.0005315059679560363 -0.0038986867293715477" pbc="T T T"
Li       8.90846815       7.34544406       3.53140865        0      -0.57131444       0.30827157       0.45898542       0.00464492       0.18086696       0.00779481
Li      12.97635594       5.92431240       5.70631422        1       0.11464861       1.14676499       0.28430159      -0.29762650       0.30174109      -0.07128636
Li       8.84424591       5.52548530       5.89666643        2       0.08360619       1.72475036      -0.01680404       0.85877067       0.60563266       0.15835141
Li      12.54607375       7.29665008       2.89523055        3      -0.59860073      -0.35444500      -0.81946647      -0.56344795      -0.46045539       0.26895690
Li      10.85612169       4.39273606       3.06287232        4      -0.36217538       0.86691937      -0.11187098       0.16519439       0.32567805       0.18630034
Li      10.59152228       8.18162722       5.75697786        5      -0.54467999       1.44178927       0.42370865      -0.11231139       0.12571946       0.11709632
P        7.36219595       4.21648773       2.95452469        6      -0.87843114       0.52372254       0.59073997      -0.82740474      -0.65675175      -0.58371836
S        7.27343971       6.10322413       2.22363505        7       1.42397761       0.11725640      -0.78399046       0.21716942       0.56148076       0.03091592
S        8.96789441       3.20711493       2.16490210        8       0.36832100      -0.88153536      -0.98318788       0.19715223       0.27719662      -0.03944681
S        5.64143997       3.22551627       2.36024282        9       1.79567780      -0.65577875      -0.16916786      -0.03542282      -0.06612572      -0.03643708
S        7.32110933       4.17515019       4.97895183       10      -0.34216131      -0.95150047       1.41729952      -0.26281917      -0.17716429       0.40167069
S       10.75730625       6.31268171       4.51269203       11      -0.44301464      -0.03666823      -0.50007801       0.39459702      -0.22271325      -0.19850548
Cl       0.06854536      -0.14117767       0.05603507       12      -0.04585361      -3.24954673       0.20953057       0.26150393      -0.79510546      -0.24169230
13
Lattice="7.26870274 0.0 0.0 3.634351370000001 6.294881225397555 0.0 3.634351370000001 2.0982937417991856 5.934870934989993" Properties=species:S:1:pos:R:3:spacegroup_kinds:I:1:momenta:R:3:forces:R:3 spacegroup="P 1" unit_cell=conventional occupancy="_JSON {\"0\": {\"Li\": 1}, \"1\": {\"Li\": 1}, \"2\": {\"Li\": 1}, \"3\": {\"Li\": 1}, \"4\": {\"Li\": 1}, \"5\": {\"Li\": 1}, \"6\": {\"P\": 1}, \"7\": {\"S\": 1}, \"8\": {\"S\": 1}, \"9\": {\"S\": 1}, \"10\": {\"S\": 1}, \"11\": {\"S\": 1}, \"12\": {\"Cl\": 1}}" energy=-53.51704788208008 free_energy=-53.51704788208008 stress="0.006275648716837168 -0.007272535469383001 -0.007244287058711052 -0.007272535469383001 -0.00046045638737268746 0.0033153926488012075 -0.007244287058711052 0.0033153926488012075 0.003915867768228054" pbc="T T T"
Li       8.84267348       7.36893496       3.63102247        0      -0.09395470       0.31196655       0.53740455      -0.04418066       0.24047624      -0.12186562
Li      12.93311388       6.07845991       5.76030596        1      -0.12539692       1.10712612       0.19936793      -0.08068167       0.15963069      -0.10419744
Li       8.93089049       5.79336086       5.86503220        2       0.68011404       1.39411785      -0.21329963       0.04957491      -0.04683599       0.29142973
Li      12.39091014       7.19253569       2.82646079        3      -1.07070615      -0.83187456       0.11452328      -0.26979572      -0.17015563       0.07129452
Li      10.81235676       4.50218226       3.06275460        4      -0.14716216       0.76791196       0.04722576       0.11375742      -0.14465162      -0.09291185
Li      10.48799755       8.32751023       5.79623736        5      -0.80067908       0.08420943       0.13214463      -0.07048550      -0.40353367      -0.12453140
P        7.33340352       4.22373245       2.95117842        6      -0.57300590       0.13701777      -1.11372436       0.47753978      -0.47691476       0.12719187
S        7.32222598       6.12879564       2.18789161        7       0.88094728       0.97786376      -0.95442667      -0.04176187       0.22759011       0.44060653
S        8.95495072       3.17419229       2.12348332        8      -0.42281928      -0.88842899      -0.99749917       0.01243512       0.51853430       0.42768377
S        5.70958830       3.19909572       2.36881634        9       1.45896992      -0.86215299       0.43371584      -1.10057855      -0.17923066      -0.37231004
S        7.30973086       4.15351284       5.03135632       10      -0.03249493      -0.08618986       0.85832195       0.22023098       0.81533009      -0.35173410
S       10.76292824       6.33470852       4.50755180       11       0.57841598       0.66403164       0.71024647       0.33419716       0.28600919      -0.03898234
Cl       0.06852556      -0.23449476       0.06003570       12      -0.33222812      -2.77559872       0.24599944       0.39974853      -0.82624817      -0.15167353
13
Lattice="7.26870274 0.0 0.0 3.634351370000001 6.294881225397555 0.0 3.634351370000001 2.0982937417991856 5.934870934989993" Properties=species:S:1:pos:R:3:spacegroup_kinds:I:1:momenta:R:3:forces:R:3 spacegroup="P 1" unit_cell=conventional occupancy="_JSON {\"0\": {\"Li\": 1}, \"1\": {\"Li\": 1}, \"2\": {\"Li\": 1}, \"3\": {\"Li\": 1}, \"4\": {\"Li\": 1}, \"5\": {\"Li\": 1}, \"6\": {\"P\": 1}, \"7\": {\"S\": 1}, \"8\": {\"S\": 1}, \"9\": {\"S\": 1}, \"10\": {\"S\": 1}, \"11\": {\"S\": 1}, \"12\": {\"Cl\": 1}}" energy=-53.41189956665039 free_energy=-53.41189956665039 stress="0.005929629784077406 -0.011800975538790226 -0.00792994350194931 -0.011800975538790226 0.0020541588310152292 0.0017822455847635865 -0.00792994350194931 0.0017822455847635865 0.006055120378732681" pbc="T T T"
Li       8.77849351       7.38546002       3.69197070        0      -0.55920621      -0.02801248       0.32212771      -0.04282483       0.20581704      -0.22666359
Li      12.96189215       6.29579385       5.77021992        1       0.48899368       0.94783134      -0.10425554      -0.07162766      -0.14784607       0.07393853
Li       8.98261802       5.94972092       5.86457525        2       0.09780784       0.41728068       0.17044492      -0.30627745      -0.46410054       0.48561710
Li      12.21358653       7.08133223       2.85123113        3      -1.15805944      -0.47300762       0.27060494       0.25551090       0.33959189      -0.35241431
Li      10.82929716       4.59674694       3.09548998        4       0.39700363       0.17039470       0.28535954      -0.08154881      -0.64644420      -0.32269800
Li      10.36490120       8.31709062       5.78599084        5      -0.44564943      -0.31240515      -0.37428589       0.12391271       0.04146204      -0.05127189
P        7.29838940       4.23316504       2.93172625        6      -0.01019743       0.01388394       0.09855922       1.64406753      -0.34366792       0.64220434
S        7.36680424       6.15735831       2.16312677        7       0.93073173       0.71030723      -0.22571679      -0.39943513      -0.07188535       0.42317235
S        8.95217815       3.15327365       2.11259331        8      -0.13576004      -0.83118108       0.10517187      -0.27154282       0.66751391       0.58714271
S        5.72396808       3.17074308       2.37780464        9      -0.25177855      -0.49898229       0.02754271      -1.62038970      -0.24154048      -0.58174425
S        7.32378923       4.17731959       5.04513566       10       0.02119090       1.62887323       0.24268782       0.18035777       0.77879512      -0.72654700
S       10.79991052       6.35364943       4.52240535       11       0.92628464       0.86994936       0.13749025      -0.02532472       0.41069472       0.17306088
Cl       0.05434934      -0.33399929       0.05257958       12      -0.30136130      -2.61493194      -0.95573077       0.61512208      -0.52839041      -0.12379725
13
Lattice="7.26870274 0.0 0.0 3.634351370000001 6.294881225397555 0.0 3.634351370000001 2.0982937417991856 5.934870934989993" Properties=species:S:1:pos:R:3:spacegroup_kinds:I:1:momenta:R:3:forces:R:3 spacegroup="P 1" unit_cell=conventional occupancy="_JSON {\"0\": {\"Li\": 1}, \"1\": {\"Li\": 1}, \"2\": {\"Li\": 1}, \"3\": {\"Li\": 1}, \"4\": {\"Li\": 1}, \"5\": {\"Li\": 1}, \"6\": {\"P\": 1}, \"7\": {\"S\": 1}, \"8\": {\"S\": 1}, \"9\": {\"S\": 1}, \"10\": {\"S\": 1}, \"11\": {\"S\": 1}, \"12\": {\"Cl\": 1}}" energy=-53.31124496459961 free_energy=-53.31124496459961 stress="0.010003260336816311 -0.010157758370041847 -0.004020368680357933 -0.010157758370041847 0.0023913877084851265 0.0028852345421910286 -0.004020368680357933 0.0028852345421910286 0.006837721914052963" pbc="T T T"
Li       8.70505248       7.40920185       3.69411331        0      -0.22867729       0.14257259      -0.68740357       0.10353528       0.09322618      -0.11359768
Li      13.06835147       6.42980424       5.78803520        1       0.30866775       0.31951329       0.03785915      -0.70765942      -0.68405223      -0.01538121
Li       8.93314891       5.99784526       5.95440335        2      -0.44046496      -0.07279039       0.69697822      -0.03028188      -0.48911548       0.15586632
Li      12.07184785       7.07064995       2.88436880        3      -0.39016940       0.51545969       0.00901561       0.75313407       0.70579922      -0.88947523
Li      10.93437987       4.58759844       3.10322512        4       0.74006475      -0.67747287      -0.09758819      -0.19154806      -0.69719905      -0.21385580
Li      10.28516319       8.28158861       5.78326809        5      -0.13127314      -0.04386088      -0.16533373       0.29047948       0.33022749      -0.03324444
P        7.33217176       4.23435804       2.95418038        6       1.08629777       0.13044193       0.89314728       0.31952673      -0.49135250       0.24445802
S        7.40611988       6.16107380       2.14906940        7       0.90019307      -0.68090119      -0.30529895      -0.56793934      -0.35325679       0.35781562
S        8.93338010       3.14869961       2.13904298        8      -0.77355231       0.26786752       0.96389387      -0.00923114       0.49365640       0.50839090
S        5.68659384       3.12890402       2.35145422        9      -1.31986991      -0.55000512      -0.87907041      -0.42908376       0.49887568      -0.04738815
S        7.29608756       4.25476714       5.06517604       10      -1.12282424       1.81638686       0.14666910       0.11004234       0.28846246      -0.78440440
S       10.83776242       6.37315347       4.51141987       11       1.25250549       0.64643117       0.37630851      -0.74895775       0.11441948       0.83902121
Cl       0.05765042      -0.41318011       0.00823700       12       0.11910239      -1.81364262      -0.98917687       1.10798359       0.19030920      -0.00820516
13
Lattice="7.26870274 0.0 0.0 3.634351370000001 6.294881225397555 0.0 3.634351370000001 2.0982937417991856 5.934870934989993" Properties=species:S:1:pos:R:3:spacegroup_kinds:I:1:momenta:R:3:forces:R:3 spacegroup="P 1" unit_cell=conventional occupancy="_JSON {\"0\": {\"Li\": 1}, \"1\": {\"Li\": 1}, \"2\": {\"Li\": 1}, \"3\": {\"Li\": 1}, \"4\": {\"Li\": 1}, \"5\": {\"Li\": 1}, \"6\": {\"P\": 1}, \"7\": {\"S\": 1}, \"8\": {\"S\": 1}, \"9\": {\"S\": 1}, \"10\": {\"S\": 1}, \"11\": {\"S\": 1}, \"12\": {\"Cl\": 1}}" energy=-53.47627639770508 free_energy=-53.47627639770508 stress="0.010166740044951439 -0.0023415389005094767 -0.0026697295252233744 -0.0023415389005094767 -5.011595203541219e-05 0.0034878901205956936 -0.0026697295252233744 0.0034878901205956936 0.008296807296574116" pbc="T T T"
Li       8.70545624       7.46338560       3.58220232        0       0.47589151       0.42514217      -0.42242345       0.23077816      -0.21130084       0.28058824
Li      12.97864460       6.42092725       5.84849820        1      -1.13745433      -0.31726302       0.60466234      -0.50526315      -0.41561365      -0.11244570
Li       8.84274270       5.96402289       6.06271747        2      -0.44177509      -0.44400313       0.36945191       0.20709538      -0.13763753      -0.38809568
Li      12.06342976       7.21061791       2.79498275        3       0.47968702       0.95234222      -1.01082216       0.25764731       0.08059819      -0.21988545
Li      11.02819910       4.44020919       3.09563612        4       0.32435859      -1.05494526      -0.02791287      -0.28193766       0.04871356       0.22104679
Li      10.28603483       8.29081371       5.75653513        5       0.04686046       0.25543847      -0.28493803       0.22113642       0.28290862      -0.01491848
P        7.35841116       4.22090809       2.96973251        6       0.36754094      -1.11304543       1.03307773      -0.98967409       0.05944811       0.34932923
S        7.42609296       6.12067030       2.13527457        7       0.17800367      -1.46708062      -0.74978510      -0.59874827      -0.21194339       0.17796504
S        8.91436265       3.18416473       2.19311404        8       0.06780768       0.45891027       1.47750790       0.79634202      -0.04534277       0.09336831
S        5.65235875       3.09960145       2.31788055        9      -0.54957959      -0.51878500      -0.41353597       0.33731234       0.67998624       0.27996346
S        7.25316206       4.32719142       5.06108871       10      -1.38141773       2.41787803      -0.40704422       0.03293199      -0.14511843      -0.70477402
S       10.87366837       6.40198583       4.54661774       11       0.40236196       1.16950953       0.74800706      -0.58598238      -0.14891276       0.01712926
Cl       0.08959647      -0.46465065      -0.02635639       12       1.16771489      -0.76409827      -0.91624513       0.87836218       0.16421460       0.02072890
13