13
Lattice="7.26870274 0.0 0.0 3.634351370000001 6.294881225397555 0.0 3.634351370000001 2.0982937417991856 5.934870934989993" Properties=species:S:1:pos:R:3:spacegroup_kinds:I:1:forces:R:3 spacegroup="P 1" unit_cell=conventional occupancy="_JSON {\"0\": {\"Li\": 1}, \"1\": {\"Li\": 1}, \"2\": {\"Li\": 1}, \"3\": {\"Li\": 1}, \"4\": {\"Li\": 1}, \"5\": {\"Li\": 1}, \"6\": {\"P\": 1}, \"7\": {\"S\": 1}, \"8\": {\"S\": 1}, \"9\": {\"S\": 1}, \"10\": {\"S\": 1}, \"11\": {\"S\": 1}, \"12\": {\"Cl\": 1}}" energy=-53.3634147644043 free_energy=-53.3634147644043 stress="-0.0007942226366139948 -2.4041759161264054e-07 -1.579987269906269e-07 -2.4041759161264054e-07 -0.0007939395727589726 -1.0886991219649644e-07 -1.579987269906269e-07 -1.0886991219649644e-07 -0.0007939310162328184" pbc="T T T"
Li       9.25387995       7.24703237       3.10460814        0       0.00422578      -0.00243448       0.00344809
Li      12.55222827       5.34273008       5.79769826        1      -0.00421090       0.00243290      -0.00344119
Li       9.25387995       5.34273008       5.79769826        2       0.00422481       0.00243911      -0.00344701
Li      12.55222827       7.24703237       3.10460814        3      -0.00421171      -0.00243068       0.00344050
Li      10.90305411       4.39057894       3.10460814        4       0.00000246       0.00487579       0.00344799
Li      10.90305411       8.19918351       5.79769826        5       0.00000209      -0.00486358      -0.00344159
P        7.26870274       4.19658748       2.96743547        6       0.00008575       0.00004571       0.00003619
S        7.26870637       6.13578650       2.28182731        7      -0.00001854      -0.01090947       0.00384793
S        8.94810016       3.22699113       2.28182731        8      -0.00945862       0.00544079       0.00384729
S        5.58931258       3.22699113       2.28182731        9       0.00937808       0.00541276       0.00383039
S        7.26870637       4.19658958       5.02426588       10      -0.00001905      -0.00000953      -0.01156931
S       10.90305411       6.29488123       4.45115320       11      -0.00000171      -0.00000058      -0.00000049
Cl       0.00000000       0.00000000       0.00000000       12       0.00000151       0.00000133       0.00000117
