4
Lattice="3.128588 0.0 0.0 -1.5642939988088433 2.709436998432005 0.0 0.0 0.0 5.016955" Properties=species:S:1:pos:R:3:spacegroup_kinds:I:1:forces:R:3 spacegroup="P 1" unit_cell=conventional occupancy="_JSON {\"0\": {\"Al\": 1}, \"1\": {\"Al\": 1}, \"2\": {\"N\": 1}, \"3\": {\"N\": 1}}" energy=-29.673717498779297 free_energy=-29.673717498779297 stress="-0.002225502859801054 -1.2959827699887683e-06 2.116059683032745e-08 -1.2959827699887683e-06 -0.00222766469232738 -2.8060204826374502e-08 2.116059683032745e-08 -2.8060204826374502e-08 -0.005453620571643114" pbc="T T T"
Al       1.56429556       0.90314476       2.50490041        0      -0.00003410       0.00001991       0.00553212
Al      -0.00000156       1.80629224       5.01337791        1       0.00003298      -0.00002096       0.00552510
N        1.56429556       0.90314476       4.41849749        2      -0.00003464       0.00002139      -0.00553138
N       -0.00000156       1.80629224       1.91001999        3       0.00003577      -0.00002048      -0.00552578
