4
Lattice="3.128588 0.0 0.0 -1.5642939988088433 2.709436998432005 0.0 0.0 0.0 5.016955" Properties=species:S:1:pos:R:3:spacegroup_kinds:I:1:forces:R:3 spacegroup="P 1" unit_cell=conventional occupancy="_JSON {\"0\": {\"Al\": 1}, \"1\": {\"Al\": 1}, \"2\": {\"N\": 1}, \"3\": {\"N\": 1}}" energy=-29.673717498779297 free_energy=-29.673717498779297 stress="-0.0022253438364714384 -1.4259818499340327e-06 -2.829268730408785e-08 -1.4259818499340327e-06 -0.00222752895206213 -1.6504676514372818e-09 -2.829268730408785e-08 -1.6504676514372818e-09 -0.005453719291836023" pbc="T T T"
Al       1.56429556       0.90314476       2.50490041        0      -0.00003395       0.00002087       0.00553154
Al      -0.00000156       1.80629224       5.01337791        1       0.00003479      -0.00002004       0.00552478
N        1.56429556       0.90314476       4.41849749        2      -0.00003671       0.00002032      -0.00553079
N       -0.00000156       1.80629224       1.91001999        3       0.00003590      -0.00002112      -0.00552542
