4
Lattice="3.128588 0.0 0.0 -1.5642939988088433 2.709436998432005 0.0 0.0 0.0 5.016955" Properties=species:S:1:pos:R:3:spacegroup_kinds:I:1:momenta:R:3:forces:R:3 spacegroup="P 1" unit_cell=conventional occupancy="_JSON {\"0\": {\"Al\": 1}, \"1\": {\"Al\": 1}, \"2\": {\"N\": 1}, \"3\": {\"N\": 1}}" energy=-29.62373924255371 free_energy=-29.62373924255371 stress="0.004300246946513653 -0.008672731928527355 0.0028820675797760487 -0.008672731928527355 -0.006943690124899149 -0.00443453062325716 0.0028820675797760487 -0.00443453062325716 -0.014839131385087967" pbc="T T T"
Al       1.54321203       0.89379621       2.53645985        0      -0.00705426      -0.41529068       0.79445085      -0.25250232       0.39303026      -0.87834561
Al       0.03580901       1.79893951       4.98957808        1       0.09337972      -0.29525167      -0.61191986      -0.16601235       0.14058346       0.62745363
N        1.59619753       0.90645096       4.40111850        2      -0.02189870       1.09350665       0.27120763      -0.08899769      -0.09593888       0.34911495
N       -0.05911265       1.83464208       1.91219266        3      -0.06442677      -0.38296429      -0.45373854       0.50751221      -0.43767485      -0.09822300
