4
Lattice="3.128588 0.0 0.0 -1.5642939988088433 2.709436998432005 0.0 0.0 0.0 5.016955" Properties=species:S:1:pos:R:3:spacegroup_kinds:I:1:momenta:R:3:forces:R:3 spacegroup="P 1" unit_cell=conventional occupancy="_JSON {\"0\": {\"Al\": 1}, \"1\": {\"Al\": 1}, \"2\": {\"N\": 1}, \"3\": {\"N\": 1}}" energy=-29.673715591430664 free_energy=-29.673715591430664 stress="-0.0022252548951655626 -1.4014411817697692e-06 2.0080866747207438e-08 -1.4014411817697692e-06 -0.002227425342425704 -1.8673032897709163e-08 2.0080866747207438e-08 -1.8673032897709163e-08 -0.005453703925013542" pbc="T T T"
Al       1.56429556       0.90314476       2.50490041        0       0.68448204       0.53670047       0.91071479      -0.00003579       0.00002015       0.00553247
Al      -0.00000156       1.80629224       5.01337791        1       0.31075784       0.39520501      -1.87833745       0.00003339      -0.00001908       0.00552389
N        1.56429556       0.90314476       4.41849749        2      -0.23293981      -0.79739853      -0.40745139      -0.00003534       0.00001998      -0.00553097
N       -0.00000156       1.80629224       1.91001999        3      -0.76230006      -0.13450696       1.37507406       0.00003762      -0.00002111      -0.00552507
4
Lattice="3.128588 0.0 0.0 -1.5642939988088433 2.709436998432005 0.0 0.0 0.0 5.016955" Properties=species:S:1:pos:R:3:spacegroup_kinds:I:1:momenta:R:3:forces:R:3 spacegroup="P 1" unit_cell=conventional occupancy="_JSON {\"0\": {\"Al\": 1}, \"1\": {\"Al\": 1}, \"2\": {\"N\": 1}, \"3\": {\"N\": 1}}" energy=-29.43359375 free_energy=-29.43359375 stress="-0.013773365877568722 -0.016446346417069435 0.012948794290423393 -0.016446346417069435 -0.023968739435076714 0.009969755075871944 0.012948794290423393 0.009969755075871944 -0.012059414759278297" pbc="T T T"
Al       1.60246140       0.92231284       2.54150848        0       0.57498184      -0.13491997       1.02882465      -1.31301260      -0.49033454      -0.87831306
Al       0.00328789       1.81111140       4.94718774        1      -0.44725803       0.00118075      -1.07867317      -0.30154294      -0.59423226       1.18011856
N        1.53678588       0.85870779       4.38099593        2       0.14052030      -0.46066745       0.20203869       0.28490889       0.67984474       1.25553632
N       -0.05228244       1.80432670       2.00436660        3      -0.26824416       0.59440671      -0.15219022       1.32964671       0.40472201      -1.55734158
4
Lattice="3.128588 0.0 0.0 -1.5642939988088433 2.709436998432005 0.0 0.0 0.0 5.016955" Properties=species:S:1:pos:R:3:spacegroup_kinds:I:1:momenta:R:3:forces:R:3 spacegroup="P 1" unit_cell=conventional occupancy="_JSON {\"0\": {\"Al\": 1}, \"1\": {\"Al\": 1}, \"2\": {\"N\": 1}, \"3\": {\"N\": 1}}" energy=-29.5672550201416 free_energy=-29.5672550201416 stress="0.012915772385895252 0.001702496549114585 0.0035793576389551163 0.001702496549114585 -0.025857042521238327 -0.005369131453335285 0.0035793576389551163 -0.005369131453335285 -0.01143536064773798" pbc="T T T"
Al       1.59598185       0.90138486       2.55101265        0      -0.85003966      -0.64755182      -0.41676294      -0.33522707       0.74370313      -1.26921308
Al      -0.01311799       1.79082858       4.96769658        1      -0.24557025      -0.74327796       1.65595789      -0.18280311      -0.17026785       1.21499681
N        1.52960408       0.86779351       4.41996340        2       0.16413059       0.60763580       0.63654580       0.31887749       0.39321446      -0.09056941
N       -0.00060093       1.87475190       1.90756520        3       0.93147930       0.78319404      -1.87574081       0.19915283      -0.96664989       0.14478543
4
Lattice="3.128588 0.0 0.0 -1.5642939988088433 2.709436998432005 0.0 0.0 0.0 5.016955" Properties=species:S:1:pos:R:3:spacegroup_kinds:I:1:momenta:R:3:forces:R:3 spacegroup="P 1" unit_cell=conventional occupancy="_JSON {\"0\": {\"Al\": 1}, \"1\": {\"Al\": 1}, \"2\": {\"N\": 1}, \"3\": {\"N\": 1}}" energy=-29.406274795532227 free_energy=-29.406274795532227 stress="0.01068878173828125 0.01649818941950798 -0.008163979277014732 0.01649818941950798 -0.009423041716217995 -0.015553905628621578 -0.008163979277014732 -0.015553905628621578 -0.06125402823090553" pbc="T T T"
Al       1.53423929       0.87298461       2.51007452        0      -1.60925343       0.09619235      -1.03262318       0.74608922       1.00298512       0.03482464
Al      -0.01349004       1.78470221       5.05709165        1       0.21561201      -0.04339809       1.72443245       0.02271199       0.40732881      -1.66437030
N        1.55208973       0.92225133       4.42203508        2       0.38659408       0.63935812      -0.93002899       0.04495822      -0.39009619      -0.56986022
N        0.09667396       1.88681818       1.81230437        3       1.00704732      -0.69215238       0.23821975      -0.81375957      -1.02021778       2.19940543
4
Lattice="3.128588 0.0 0.0 -1.5642939988088433 2.709436998432005 0.0 0.0 0.0 5.016955" Properties=species:S:1:pos:R:3:spacegroup_kinds:I:1:momenta:R:3:forces:R:3 spacegroup="P 1" unit_cell=conventional occupancy="_JSON {\"0\": {\"Al\": 1}, \"1\": {\"Al\": 1}, \"2\": {\"N\": 1}, \"3\": {\"N\": 1}}" energy=-29.201902389526367 free_energy=-29.201902389526367 stress="-0.026441002264618874 0.03815559297800064 -0.031382448971271515 0.03815559297800064 -0.004877523519098759 0.0015437996480613947 -0.031382448971271515 0.0015437996480613947 -0.051819898188114166" pbc="T T T"
Al       1.49382403       0.87740194       2.48150488        0      -0.08661652      -0.02748783       0.25595539       2.48428178      -0.46186864       1.22611713
Al      -0.02076738       1.79337850       5.08843294        1       0.00716720       0.60209065      -1.27068279       0.64723206       0.57433456      -2.36004114
N        1.60157223       0.96971685       4.33361320        2       0.49437276       0.53651008      -0.17473383      -0.53882474      -0.70145380       1.74608815
N        0.13924906       1.81421453       1.89535169        3      -0.41492350      -1.11111295       1.18946130      -2.59268904       0.58898807      -0.61216384
4
Lattice="3.128588 0.0 0.0 -1.5642939988088433 2.709436998432005 0.0 0.0 0.0 5.016955" Properties=species:S:1:pos:R:3:spacegroup_kinds:I:1:momenta:R:3:forces:R:3 spacegroup="P 1" unit_cell=conventional occupancy="_JSON {\"0\": {\"Al\": 1}, \"1\": {\"Al\": 1}, \"2\": {\"N\": 1}, \"3\": {\"N\": 1}}" energy=-29.574626922607422 free_energy=-29.574626922607422 stress="-0.02361804060637951 -0.014321161434054375 -0.011127961799502373 -0.014321161434054375 0.0150300282984972 -0.0028546166140586138 -0.011127961799502373 -0.0028546166140586138 -0.014440459199249744" pbc="T T T"
Al       1.53421963       0.88369271       2.53780580        0       1.55944042       0.36820854       1.55971002       0.29264390      -0.24000517      -0.91367805
Al      -0.00048008       1.82107762       4.98837341        1       1.01688591       0.86374301      -2.47525443       0.94369471       0.52251744       0.78486609
N        1.63583966       0.96584648       4.40663186        2      -0.31021915      -0.52489323       1.27117407      -1.15103686      -0.78907371       0.05687824
N       -0.01177522       1.75252283       1.90648734        3      -2.26610726      -0.70705838      -0.35562960      -0.08530189       0.50656128       0.07193394
4
Lattice="3.128588 0.0 0.0 -1.5642939988088433 2.709436998432005 0.0 0.0 0.0 5.016955" Properties=species:S:1:pos:R:3:spacegroup_kinds:I:1:momenta:R:3:forces:R:3 spacegroup="P 1" unit_cell=conventional occupancy="_JSON {\"0\": {\"Al\": 1}, \"1\": {\"Al\": 1}, \"2\": {\"N\": 1}, \"3\": {\"N\": 1}}" energy=-29.372072219848633 free_energy=-29.372072219848633 stress="-0.005630026571452618 -0.01871933788061142 0.015849491581320763 -0.01871933788061142 -0.0322730652987957 0.017212150618433952 0.015849491581320763 0.017212150618433952 -0.007298093754798174" pbc="T T T"
Al       1.57072835       0.88046443       2.56331974        0      -0.00039271      -0.37629509      -0.57844041      -1.34386361      -0.44065842      -1.50707746
Al       0.05055071       1.86456078       4.94968569        1       0.52727009       0.77034151       1.04960211      -0.49129194      -1.36433387       1.82584870
N        1.58204799       0.88176658       4.44992394        2      -0.27832227      -1.02263385      -0.55459296       0.15003961       1.16375828      -0.85894865
N       -0.12661086       1.75915460       1.88869867        3      -0.24855518       0.62858737       0.08343132       1.68511629       0.64123446       0.54017705
4
Lattice="3.128588 0.0 0.0 -1.5642939988088433 2.709436998432005 0.0 0.0 0.0 5.016955" Properties=species:S:1:pos:R:3:spacegroup_kinds:I:1:momenta:R:3:forces:R:3 spacegroup="P 1" unit_cell=conventional occupancy="_JSON {\"0\": {\"Al\": 1}, \"1\": {\"Al\": 1}, \"2\": {\"N\": 1}, \"3\": {\"N\": 1}}" energy=-29.596923828125 free_energy=-29.596923828125 stress="0.015976477414369583 -0.004505940247327089 0.006018701009452343 -0.004505940247327089 -0.02549932152032852 -0.004597139544785023 0.006018701009452343 -0.004597139544785023 -0.010013875551521778" pbc="T T T"
Al       1.53284806       0.86390067       2.51395076        0      -1.59464548      -0.16469660      -1.74991306      -0.27820688       0.89915949      -0.15420614
Al       0.06317842       1.83227864       5.00948380        1       0.38440062      -1.80666614       1.59449934      -0.58708453      -0.41271567       0.16725121
N        1.58572476       0.89623783       4.41422579        2       0.14193134       1.12964954      -0.09119166       0.25704110       0.38076574       0.00228122
N       -0.08152107       1.83862424       1.90381444        3       1.06831344       0.84171313       0.24660544       0.60825026      -0.86720914      -0.01532650
4
Lattice="3.128588 0.0 0.0 -1.5642939988088433 2.709436998432005 0.0 0.0 0.0 5.016955" Properties=species:S:1:pos:R:3:spacegroup_kinds:I:1:momenta:R:3:forces:R:3 spacegroup="P 1" unit_cell=conventional occupancy="_JSON {\"0\": {\"Al\": 1}, \"1\": {\"Al\": 1}, \"2\": {\"N\": 1}, \"3\": {\"N\": 1}}" energy=-29.462553024291992 free_energy=-29.462553024291992 stress="-0.005697113927453756 0.010849491693079472 -0.003906638361513615 0.010849491693079472 -0.019133813679218292 -0.012703160755336285 -0.003906638361513615 -0.012703160755336285 -0.011871274560689926" pbc="T T T"
Al       1.48347328       0.88264396       2.44527932        0      -0.30454530       1.01149549      -0.60004449       0.88393199       0.95768487       1.70776975
Al       0.06164411       1.77681258       5.07306071        1      -0.86715273      -0.75617416       0.43048888      -0.30080557       0.71655345      -1.72279954
N        1.61717708       0.94947183       4.40498424        2       0.38645882       0.04830138       0.18623247      -0.07234051      -0.67486024       0.48910743
N       -0.01486931       1.85626149       1.92266701        3       0.78523913      -0.30362271      -0.01667677      -0.51078606      -0.99937826      -0.47407758
4
Lattice="3.128588 0.0 0.0 -1.5642939988088433 2.709436998432005 0.0 0.0 0.0 5.016955" Properties=species:S:1:pos:R:3:spacegroup_kinds:I:1:momenta:R:3:forces:R:3 spacegroup="P 1" unit_cell=conventional occupancy="_JSON {\"0\": {\"Al\": 1}, \"1\": {\"Al\": 1}, \"2\": {\"N\": 1}, \"3\": {\"N\": 1}}" energy=-29.51875114440918 free_energy=-29.51875114440918 stress="-0.023370739072561264 0.006539993453770876 -0.01609829068183899 0.006539993453770876 0.006697341799736023 -0.0004823877243325114 -0.01609829068183899 -0.0004823877243325114 -0.02216128446161747" pbc="T T T"
Al       1.50607637       0.94974321       2.46463701        0       1.15921360       0.62635197       1.50689901       1.24247670      -0.60704780       1.15697432
Al       0.01335469       1.75088038       5.06242873        1      -0.91112060       0.14825283      -0.88962593       0.51474690       0.69610560      -1.43088961
N        1.62637960       0.90489621       4.42127854        2      -0.14223488      -0.64065058       0.21498386      -0.71771878      -0.51824117      -0.07984799
N        0.02538007       1.82158362       1.88963025        3      -0.10585819      -0.13395425      -0.83225685      -1.03950500       0.42918345       0.35376307
4
Lattice="3.128588 0.0 0.0 -1.5642939988088433 2.709436998432005 0.0 0.0 0.0 5.016955" Properties=species:S:1:pos:R:3:spacegroup_kinds:I:1:momenta:R:3:forces:R:3 spacegroup="P 1" unit_cell=conventional occupancy="_JSON {\"0\": {\"Al\": 1}, \"1\": {\"Al\": 1}, \"2\": {\"N\": 1}, \"3\": {\"N\": 1}}" energy=-29.60500717163086 free_energy=-29.60500717163086 stress="0.0015956846764311194 -0.006785821169614792 -0.003095510182902217 -0.006785821169614792 0.001780577702447772 0.0017243645852431655 -0.003095510182902217 0.0017243645852431655 -0.02311370149254799" pbc="T T T"
Al       1.56693923       0.93861031       2.54470912        0       1.44875284      -0.98943851       1.48437389      -0.01659299      -0.29131782      -1.20300603
Al      -0.01304571       1.78057346       4.99752452        1       0.01689809       1.11025008      -1.70730023       0.38438851       0.02358318       0.50760335
N        1.58384206       0.87104969       4.42155571        2      -0.67927485      -0.02704993      -0.19037136      -0.39237049       0.15177804      -0.39792380
N        0.00122210       1.81989277       1.85992052        3      -0.78637615      -0.09376173       0.41329779       0.02457497       0.11595660       1.09332633
4
Lattice="3.128588 0.0 0.0 -1.5642939988088433 2.709436998432005 0.0 0.0 0.0 5.016955" Properties=species:S:1:pos:R:3:spacegroup_kinds:I:1:momenta:R:3:forces:R:3 spacegroup="P 1" unit_cell=conventional occupancy="_JSON {\"0\": {\"Al\": 1}, \"1\": {\"Al\": 1}, \"2\": {\"N\": 1}, \"3\": {\"N\": 1}}" energy=-29.470205307006836 free_energy=-29.470205307006836 stress="0.0032030835282057524 -0.017801493406295776 0.011838378384709358 -0.017801493406295776 -0.041349176317453384 0.007359917741268873 0.011838378384709358 0.007359917741268873 -0.005160273052752018" pbc="T T T"
Al       1.62755625       0.89950078       2.54516754        0       1.04970742      -0.99981867      -0.80202969      -1.41064775       0.15933262      -0.91779238
Al      -0.00757058       1.81703572       4.95606284        1      -0.03757963       0.11959802      -0.16512798      -0.26242810      -0.84351504       1.41445851
N        1.52756234       0.85151203       4.42065485        2      -0.42752215       0.29023093      -0.07965714       0.31765971       0.98894525      -0.00115428
N       -0.06966665       1.84442113       1.93994537        3      -0.58460571       0.58998965       1.04681493       1.35541642      -0.30476290      -0.49551183
4
Lattice="3.128588 0.0 0.0 -1.5642939988088433 2.709436998432005 0.0 0.0 0.0 5.016955" Properties=species:S:1:pos:R:3:spacegroup_kinds:I:1:momenta:R:3:forces:R:3 spacegroup="P 1" unit_cell=conventional occupancy="_JSON {\"0\": {\"Al\": 1}, \"1\": {\"Al\": 1}, \"2\": {\"N\": 1}, \"3\": {\"N\": 1}}" energy=-29.45298957824707 free_energy=-29.45298957824707 stress="-0.013225164264440536 -0.02375011146068573 0.00791149027645588 -0.02375011146068573 -0.04793192818760872 -0.0073332940228283405 0.00791149027645588 -0.0073332940228283405 0.028632819652557373" pbc="T T T"
Al       1.63184036       0.85684029       2.46693550        0      -0.97589039      -0.55899561      -1.34838409      -1.39010096       1.11025798       1.17304170
Al      -0.02377745       1.82170279       4.98999598        1      -0.28018840       0.45883512       1.28013533      -0.08532806       0.08283552       0.34697545
N        1.52792698       0.92957751       4.44479007        2       0.11446484       0.97873244       0.08012577       0.22036307      -0.17398758       0.05598754
N       -0.04718868       1.83921499       2.00086015        3       1.14161386      -0.87857201      -0.01187693       1.25506580      -1.01910591      -1.57600474
4
Lattice="3.128588 0.0 0.0 -1.5642939988088433 2.709436998432005 0.0 0.0 0.0 5.016955" Properties=species:S:1:pos:R:3:spacegroup_kinds:I:1:momenta:R:3:forces:R:3 spacegroup="P 1" unit_cell=conventional occupancy="_JSON {\"0\": {\"Al\": 1}, \"1\": {\"Al\": 1}, \"2\": {\"N\": 1}, \"3\": {\"N\": 1}}" energy=-29.53631591796875 free_energy=-29.53631591796875 stress="-0.01985742338001728 0.013828985393047333 -0.0057173981331288815 0.013828985393047333 -0.0031639253720641136 -0.0016710235504433513 -0.0057173981331288815 -0.0016710235504433513 -0.006260466296225786" pbc="T T T"
Al       1.56291506       0.86348347       2.43836897        0      -1.44558767       0.38889090       0.34074981       0.67285824       0.11609376       1.45909393
Al      -0.01834143       1.83613135       5.05736568        1       0.19731490      -0.00921489       1.04742157       0.06595228       0.15003717      -1.19267106
N        1.54726697       0.95741147       4.47045644        2      -0.01023992       0.05684978       0.14844042       0.09761447      -0.44421059      -0.65174294
N        0.05576964       1.77068662       1.90062732        3       1.25851263      -0.43652584      -1.53661170      -0.83642471       0.17807958       0.38532066
4
Lattice="3.128588 0.0 0.0 -1.5642939988088433 2.709436998432005 0.0 0.0 0.0 5.016955" Properties=species:S:1:pos:R:3:spacegroup_kinds:I:1:momenta:R:3:forces:R:3 spacegroup="P 1" unit_cell=conventional occupancy="_JSON {\"0\": {\"Al\": 1}, \"1\": {\"Al\": 1}, \"2\": {\"N\": 1}, \"3\": {\"N\": 1}}" energy=-29.5310001373291 free_energy=-29.5310001373291 stress="-0.018294015899300575 0.015707679092884064 -0.0116077596321702 0.015707679092884064 0.003147791838273406 0.0046056597493588924 -0.0116077596321702 0.0046056597493588924 -0.017258718609809875" pbc="T T T"
Al       1.54701075       0.87273543       2.46070914        0       0.71855731      -0.11584411       0.49435340       1.07476866      -0.28505695       1.06925499
Al      -0.01761628       1.84389395       5.05391122        1       0.19346417       0.17720466      -0.69190099       0.23187584      -0.07942076      -1.16825306
N        1.56395351       0.94331117       4.45961402        2       0.32487440      -0.12409439      -0.51346203      -0.11547033      -0.20503101      -0.72920072
N        0.06831345       1.75176766       1.87546338        3      -1.23689588       0.06273380       0.71100972      -1.19117379       0.56950855       0.82819855
4
Lattice="3.128588 0.0 0.0 -1.5642939988088433 2.709436998432005 0.0 0.0 0.0 5.016955" Properties=species:S:1:pos:R:3:spacegroup_kinds:I:1:momenta:R:3:forces:R:3 spacegroup="P 1" unit_cell=conventional occupancy="_JSON {\"0\": {\"Al\": 1}, \"1\": {\"Al\": 1}, \"2\": {\"N\": 1}, \"3\": {\"N\": 1}}" energy=-29.61321258544922 free_energy=-29.61321258544922 stress="-0.008381623774766922 -0.004276735708117485 0.005492849741131067 -0.004276735708117485 -0.01393712218850851 0.0014804706443101168 0.005492849741131067 0.0014804706443101168 0.01247546635568142" pbc="T T T"
Al       1.57767908       0.87033374       2.48321565        0       0.42145848      -0.10086025       0.75449469      -0.50598794       0.14215396       0.64867663
Al       0.00878680       1.84488741       5.00616581        1       0.94842524       0.04829639      -0.67234765      -0.28191018      -0.37569791       0.05942921
N        1.54733736       0.91884311       4.41695259        2      -0.50233592      -0.06173771      -0.86681662       0.26756701       0.16352573       0.34766677
N       -0.02491945       1.77881441       1.96659667        3      -0.86754782       0.11430152       0.78466966       0.52033108       0.07001831      -1.05577230
4
Lattice="3.128588 0.0 0.0 -1.5642939988088433 2.709436998432005 0.0 0.0 0.0 5.016955" Properties=species:S:1:pos:R:3:spacegroup_kinds:I:1:momenta:R:3:forces:R:3 spacegroup="P 1" unit_cell=conventional occupancy="_JSON {\"0\": {\"Al\": 1}, \"1\": {\"Al\": 1}, \"2\": {\"N\": 1}, \"3\": {\"N\": 1}}" energy=-29.557838439941406 free_energy=-29.557838439941406 stress="-0.016363633796572685 -0.002947702771052718 0.0129038505256176 -0.002947702771052718 -0.006207464728504419 0.001537682255730033 0.0129038505256176 0.001537682255730033 -0.002714809961616993" pbc="T T T"
Al       1.59068813       0.88023425       2.52274590        0      -0.41625562       0.17887045       0.33160870      -0.90884209      -0.14030854      -0.36868173
Al       0.01872291       1.83477378       4.97781992        1       0.14973950      -0.20763020      -0.17578568      -0.72829729      -0.10046195       0.72652984
N        1.52039168       0.92489999       4.39464374        2       0.19754397       0.25939895       0.47781786       0.72475934      -0.09605197       0.71574289
N       -0.04216866       1.77342023       1.96745702        3       0.06897210      -0.23063921      -0.63364074       0.91238010       0.33682239      -1.07359076
4
Lattice="3.128588 0.0 0.0 -1.5642939988088433 2.709436998432005 0.0 0.0 0.0 5.016955" Properties=species:S:1:pos:R:3:spacegroup_kinds:I:1:momenta:R:3:forces:R:3 spacegroup="P 1" unit_cell=conventional occupancy="_JSON {\"0\": {\"Al\": 1}, \"1\": {\"Al\": 1}, \"2\": {\"N\": 1}, \"3\": {\"N\": 1}}" energy=-29.621110916137695 free_energy=-29.621110916137695 stress="-0.021500708535313606 0.005276480223983526 -0.0032674784306436777 0.005276480223983526 0.01065792515873909 0.0019249446922913194 -0.0032674784306436777 0.0019249446922913194 -0.0015898877754807472" pbc="T T T"
Al       1.54767648       0.89587758       2.50832861        0      -0.85810043       0.46896511      -1.00003114       0.39160329      -0.39029071      -0.15032639
Al       0.00665800       1.82067519       5.00342496        1      -0.72966957      -0.11082577       1.46536794      -0.00949497       0.22696890       0.34862944
N        1.57185931       0.94293298       4.45440722        2       0.62349887      -0.37686579       0.64593229      -0.01970112      -0.43335211      -0.83889955
N        0.01256029       1.75229415       1.88600538        3       0.96427109       0.01872646      -1.11126894      -0.36240721       0.59667397       0.64059657
4
Lattice="3.128588 0.0 0.0 -1.5642939988088433 2.709436998432005 0.0 0.0 0.0 5.016955" Properties=species:S:1:pos:R:3:spacegroup_kinds:I:1:momenta:R:3:forces:R:3 spacegroup="P 1" unit_cell=conventional occupancy="_JSON {\"0\": {\"Al\": 1}, \"1\": {\"Al\": 1}, \"2\": {\"N\": 1}, \"3\": {\"N\": 1}}" energy=-29.520856857299805 free_energy=-29.520856857299805 stress="-0.014047380536794662 0.011821038089692593 -0.014255602844059467 0.011821038089692593 -0.005614747293293476 0.009361484088003635 -0.014255602844059467 0.009361484088003635 -0.019571084529161453" pbc="T T T"
Al       1.52999425       0.91403912       2.46474571        0       0.09545097      -0.23101261      -1.18071417       1.21875525      -0.63577163       0.99290156
Al      -0.00890655       1.82180737       5.05208970        1       0.31216929      -0.10747501       0.45537753       0.39472795      -0.38378438      -1.12710512
N        1.59437713       0.88605552       4.45928988        2      -0.04799029      -0.53350301      -0.20523270      -0.40810654       0.35578933      -0.79021573
N        0.05384448       1.77207215       1.87145003        3      -0.35963001       0.87199066       0.93056952      -1.20537686       0.66376674       0.92441952
4
Lattice="3.128588 0.0 0.0 -1.5642939988088433 2.709436998432005 0.0 0.0 0.0 5.016955" Properties=species:S:1:pos:R:3:spacegroup_kinds:I:1:momenta:R:3:forces:R:3 spacegroup="P 1" unit_cell=conventional occupancy="_JSON {\"0\": {\"Al\": 1}, \"1\": {\"Al\": 1}, \"2\": {\"N\": 1}, \"3\": {\"N\": 1}}" energy=-29.61878776550293 free_energy=-29.61878776550293 stress="0.010117783211171627 -0.0018218656769022346 -0.001873015658929944 -0.0018218656769022346 -0.024783067405223846 0.0045911045745015144 -0.001873015658929944 0.0045911045745015144 2.6447487471159548e-05" pbc="T T T"
Al       1.53818031       0.90928014       2.47247630        0       0.23228566      -0.27447254       1.41733341       0.21200916       0.18702227       0.85530651
Al       0.01802691       1.81430745       5.03506520        1       0.60360847      -0.42930347      -1.11140824       0.03760073      -0.69444096      -0.55142397
N        1.59518013       0.85128048       4.42414651        2       0.09084582       0.02420725      -0.77345462      -0.19470158       0.84070504       0.01228032
N       -0.01452986       1.83034436       1.92467361        3      -0.92673998       0.67956877       0.46752959      -0.05490814      -0.33328649      -0.31616288
4
Lattice="3.128588 0.0 0.0 -1.5642939988088433 2.709436998432005 0.0 0.0 0.0 5.016955" Properties=species:S:1:pos:R:3:spacegroup_kinds:I:1:momenta:R:3:forces:R:3 spacegroup="P 1" unit_cell=conventional occupancy="_JSON {\"0\": {\"Al\": 1}, \"1\": {\"Al\": 1}, \"2\": {\"N\": 1}, \"3\": {\"N\": 1}}" energy=-29.62373924255371 free_energy=-29.62373924255371 stress="0.004300246946513653 -0.008672731928527355 0.0028820675797760487 -0.008672731928527355 -0.006943690124899149 -0.00443453062325716 0.0028820675797760487 -0.00443453062325716 -0.014839131385087967" pbc="T T T"
Al       1.54321203       0.89379621       2.53645985        0      -0.00705426      -0.41529068       0.79445085      -0.25250232       0.39303026      -0.87834561
Al       0.03580901       1.79893951       4.98957808        1       0.09337972      -0.29525167      -0.61191986      -0.16601235       0.14058346       0.62745363
N        1.59619753       0.90645096       4.40111850        2      -0.02189870       1.09350665       0.27120763      -0.08899769      -0.09593888       0.34911495
N       -0.05911265       1.83464208       1.91219266        3      -0.06442677      -0.38296429      -0.45373854       0.50751221      -0.43767485      -0.09822300
