4
Lattice="3.128588 0.0 0.0 -1.5642939988088433 2.709436998432005 0.0 0.0 0.0 5.016955" Properties=species:S:1:pos:R:3:spacegroup_kinds:I:1:forces:R:3 spacegroup="P 1" unit_cell=conventional occupancy="_JSON {\"0\": {\"Al\": 1}, \"1\": {\"Al\": 1}, \"2\": {\"N\": 1}, \"3\": {\"N\": 1}}" energy=-29.673715591430664 free_energy=-29.673715591430664 stress="-0.0022252548951655626 -1.4014411817697692e-06 2.0080866747207438e-08 -1.4014411817697692e-06 -0.002227425342425704 -1.8673032897709163e-08 2.0080866747207438e-08 -1.8673032897709163e-08 -0.005453703925013542" pbc="T T T"
Al       1.56429556       0.90314476       2.50490041        0      -0.00003579       0.00002015       0.00553247
Al      -0.00000156       1.80629224       5.01337791        1       0.00003339      -0.00001908       0.00552389
N        1.56429556       0.90314476       4.41849749        2      -0.00003534       0.00001998      -0.00553097
N       -0.00000156       1.80629224       1.91001999        3       0.00003762      -0.00002111      -0.00552507
