13
Lattice="7.26870274 0.0 0.0 3.634351370000001 6.294881225397555 0.0 3.634351370000001 2.0982937417991856 5.934870934989993" Properties=species:S:1:pos:R:3:spacegroup_kinds:I:1:forces:R:3 spacegroup="P 1" unit_cell=conventional occupancy="_JSON {\"0\": {\"Li\": 1}, \"1\": {\"Li\": 1}, \"2\": {\"Li\": 1}, \"3\": {\"Li\": 1}, \"4\": {\"Li\": 1}, \"5\": {\"Li\": 1}, \"6\": {\"P\": 1}, \"7\": {\"S\": 1}, \"8\": {\"S\": 1}, \"9\": {\"S\": 1}, \"10\": {\"S\": 1}, \"11\": {\"S\": 1}, \"12\": {\"Cl\": 1}}" energy=-53.3634147644043 free_energy=-53.3634147644043 stress="-0.0007942058145999908 -2.41288688584973e-07 -1.556994106977072e-07 -2.41288688584973e-07 -0.000793936662375927 -1.060932746099752e-07 -1.556994106977072e-07 -1.060932746099752e-07 -0.0007939009228721261" pbc="T T T"
Li       9.25387995       7.24703237       3.10460814        0       0.00422508      -0.00243420       0.00344724
Li      12.55222827       5.34273008       5.79769826        1      -0.00421148       0.00243333      -0.00344171
Li       9.25387995       5.34273008       5.79769826        2       0.00422491       0.00243882      -0.00344741
Li      12.55222827       7.24703237       3.10460814        3      -0.00421169      -0.00243071       0.00344063
Li      10.90305411       4.39057894       3.10460814        4       0.00000235       0.00487567       0.00344748
Li      10.90305411       8.19918351       5.79769826        5       0.00000177      -0.00486322      -0.00344127
P        7.26870274       4.19658748       2.96743547        6       0.00008584       0.00004592       0.00003665
S        7.26870637       6.13578650       2.28182731        7      -0.00001821      -0.01090957       0.00384820
S        8.94810016       3.22699113       2.28182731        8      -0.00945804       0.00543996       0.00384742
S        5.58931258       3.22699113       2.28182731        9       0.00937784       0.00541341       0.00383028
S        7.26870637       4.19658958       5.02426588       10      -0.00001822      -0.00000949      -0.01156832
S       10.90305411       6.29488123       4.45115320       11      -0.00000137      -0.00000102      -0.00000039
Cl       0.00000000       0.00000000       0.00000000       12       0.00000125       0.00000123       0.00000121
