4
Lattice="3.128588 0.0 0.0 -1.5642939988088433 2.709436998432005 0.0 0.0 0.0 5.016955" Properties=species:S:1:pos:R:3:spacegroup_kinds:I:1:forces:R:3 spacegroup="P 1" unit_cell=conventional occupancy="_JSON {\"0\": {\"Al\": 1}, \"1\": {\"Al\": 1}, \"2\": {\"N\": 1}, \"3\": {\"N\": 1}}" energy=-29.673717498779297 free_energy=-29.673717498779297 stress="-0.002225551987066865 -1.363327442049922e-06 2.0053448679391295e-08 -1.363327442049922e-06 -0.0022276996169239283 -1.517420500363187e-08 2.0053448679391295e-08 -1.517420500363187e-08 -0.005453691817820072" pbc="T T T"
Al       1.56429556       0.90314476       2.50490041        0      -0.00003457       0.00001993       0.00553218
Al      -0.00000156       1.80629224       5.01337791        1       0.00003284      -0.00002029       0.00552535
N        1.56429556       0.90314476       4.41849749        2      -0.00003478       0.00002084      -0.00553179
N       -0.00000156       1.80629224       1.91001999        3       0.00003654      -0.00002042      -0.00552548
