4
Lattice="3.128588 0.0 0.0 -1.5642939988088433 2.709436998432005 0.0 0.0 0.0 5.016955" Properties=species:S:1:pos:R:3:spacegroup_kinds:I:1:forces:R:3 spacegroup="P 1" unit_cell=conventional occupancy="_JSON {\"0\": {\"Al\": 1}, \"1\": {\"Al\": 1}, \"2\": {\"N\": 1}, \"3\": {\"N\": 1}}" energy=-29.673717498779297 free_energy=-29.673717498779297 stress="-0.0022253517527133226 -1.322712250839686e-06 -2.3665599258038128e-08 -1.322712250839686e-06 -0.002227366203442216 -1.3735617088173058e-08 -2.3665599258038128e-08 -1.3735617088173058e-08 -0.005453661549836397" pbc="T T T"
Al       1.56429556       0.90314476       2.50490041        0      -0.00003493       0.00001944       0.00553125
Al      -0.00000156       1.80629224       5.01337791        1       0.00003356      -0.00001952       0.00552474
N        1.56429556       0.90314476       4.41849749        2      -0.00003533       0.00002031      -0.00553098
N       -0.00000156       1.80629224       1.91001999        3       0.00003670      -0.00002015      -0.00552477
