32
Lattice="6.17176593 0.0 0.0 0.0 8.01859859 0.0 0.0 0.0 13.03281824" Properties=species:S:1:pos:R:3:spacegroup_kinds:I:1:forces:R:3 spacegroup="P 1" unit_cell=conventional occupancy="_JSON {\"0\": {\"Li\": 1}, \"1\": {\"Li\": 1}, \"2\": {\"Li\": 1}, \"3\": {\"Li\": 1}, \"4\": {\"Li\": 1}, \"5\": {\"Li\": 1}, \"6\": {\"Li\": 1}, \"7\": {\"Li\": 1}, \"8\": {\"Li\": 1}, \"9\": {\"Li\": 1}, \"10\": {\"Li\": 1}, \"11\": {\"Li\": 1}, \"12\": {\"P\": 1}, \"13\": {\"P\": 1}, \"14\": {\"P\": 1}, \"15\": {\"P\": 1}, \"16\": {\"S\": 1}, \"17\": {\"S\": 1}, \"18\": {\"S\": 1}, \"19\": {\"S\": 1}, \"20\": {\"S\": 1}, \"21\": {\"S\": 1}, \"22\": {\"S\": 1}, \"23\": {\"S\": 1}, \"24\": {\"S\": 1}, \"25\": {\"S\": 1}, \"26\": {\"S\": 1}, \"27\": {\"S\": 1}, \"28\": {\"S\": 1}, \"29\": {\"S\": 1}, \"30\": {\"S\": 1}, \"31\": {\"S\": 1}}" energy=-140.3463134765625 free_energy=-140.3463134765625 stress="-0.0028886173386126757 5.022907423324341e-09 -3.6791993895946007e-09 5.022907423324341e-09 -0.004072269424796104 9.09427289030873e-09 -3.6791993895946007e-09 9.09427289030873e-09 -0.0025936118327081203" pbc="T T T"
Li       2.40166812       0.26892250       4.33377960        0      -0.01548998       0.00236057       0.00063495
Li       3.77009788       7.74967606       8.69903846        1       0.01548918      -0.00236081      -0.00063125
Li       5.48755102       7.74967599       2.18262942        2      -0.01549342      -0.00236090      -0.00063202
Li       0.68421479       0.26892250      10.85018872        3       0.01549114       0.00236040       0.00063232
Li       3.77009787       4.27822188       8.69903840        4       0.01548850       0.00235815      -0.00063365
Li       2.40166818       3.74037680       4.33377962        5      -0.01548961      -0.00236053       0.00063432
Li       0.68421483       3.74037677      10.85018869        6       0.01549093      -0.00235987       0.00063174
Li       5.48755107       4.27822185       2.18262935        7      -0.01549260       0.00236003      -0.00062909
Li       3.08588286      -0.00000011       0.00000003        8      -0.00000052       0.00000031       0.00000036
Li       0.00000001      -0.00000012       6.51640934        9       0.00000135       0.00000236      -0.00000070
Li       3.08588296       4.00929936       0.00000009       10      -0.00000221      -0.00000097       0.00000083
Li       0.00000000       4.00929928       6.51640922       11      -0.00000008      -0.00000062      -0.00000055
P        0.93932956       2.00464934       1.16793472       12      -0.00066660       0.00000960       0.03303316
P        5.23243628       6.01394883      11.86488423       13       0.00067347       0.00000051      -0.03306157
P        4.02521221       6.01394898       5.34847522       14      -0.00065169      -0.00000053      -0.03306298
P        2.14655387       2.00464975       7.68434323       15       0.00065158      -0.00000041       0.03305253
S        5.07612352       2.00464963       1.30682512       16       0.00280136      -0.00000043       0.01274960
S        1.09564245       6.01394882      11.72599297       17      -0.00280839      -0.00000053      -0.01274583
S        1.99024092       6.01394888       5.20958387       18       0.00279433       0.00000043      -0.01274613
S        4.18152505       2.00464962       7.82323421       19      -0.00279266       0.00000080       0.01274815
S        1.68772177       2.00464970      12.25093559       20       0.03397076      -0.00000016       0.02524860
S        4.48404411       6.01394887       0.78188259       21      -0.03397351       0.00000090      -0.02523604
S        4.77360475       6.01394892       7.29829163       22       0.03397194       0.00000079      -0.02523642
S        1.39816134       2.00464969       5.73452692       23      -0.03397271      -0.00000076       0.02523979
S        1.68016700       0.28147987       2.00960378       24       0.02273571      -0.00259597      -0.01691856
S        4.49159899       7.73711939      11.02321408       25      -0.02272907       0.00258572       0.01692344
S        4.76604995       7.73711930       4.50680510       26       0.02272824       0.00258184       0.01692868
S        1.40571574       0.28147949       8.52601314       27      -0.02272746      -0.00258554      -0.01692817
S        4.49159895       4.29077880      11.02321423       28      -0.02273043      -0.00258632       0.01692497
S        1.68016718       3.72781980       2.00960397       29       0.02273083       0.00258660      -0.01692355
S        1.40571575       3.72781978       8.52601312       30      -0.02272691       0.00258671      -0.01692534
S        4.76604997       4.29077863       4.50680496       31       0.02272851      -0.00258138       0.01692845
