4
Lattice="3.128588 0.0 0.0 -1.5642939988088433 2.709436998432005 0.0 0.0 0.0 5.016955" Properties=species:S:1:pos:R:3:spacegroup_kinds:I:1:forces:R:3 spacegroup="P 1" unit_cell=conventional occupancy="_JSON {\"0\": {\"Al\": 1}, \"1\": {\"Al\": 1}, \"2\": {\"N\": 1}, \"3\": {\"N\": 1}}" energy=-29.673717498779297 free_energy=-29.673717498779297 stress="-0.0022253303322941065 -1.4641052530350862e-06 -2.481413474697547e-08 -1.4641052530350862e-06 -0.0022274383809417486 -4.1098441982967415e-08 -2.481413474697547e-08 -4.1098441982967415e-08 -0.005453719291836023" pbc="T T T"
Al       1.56429556       0.90314476       2.50490041        0      -0.00003481       0.00002001       0.00553159
Al      -0.00000156       1.80629224       5.01337791        1       0.00003581      -0.00001956       0.00552418
N        1.56429556       0.90314476       4.41849749        2      -0.00003739       0.00002025      -0.00553144
N       -0.00000156       1.80629224       1.91001999        3       0.00003638      -0.00002070      -0.00552388
