32
Lattice="6.17176593 0.0 0.0 0.0 8.01859859 0.0 0.0 0.0 13.03281824" Properties=species:S:1:pos:R:3:spacegroup_kinds:I:1:momenta:R:3:forces:R:3 spacegroup="P 1" unit_cell=conventional occupancy="_JSON {\"0\": {\"Li\": 1}, \"1\": {\"Li\": 1}, \"2\": {\"Li\": 1}, \"3\": {\"Li\": 1}, \"4\": {\"Li\": 1}, \"5\": {\"Li\": 1}, \"6\": {\"Li\": 1}, \"7\": {\"Li\": 1}, \"8\": {\"Li\": 1}, \"9\": {\"Li\": 1}, \"10\": {\"Li\": 1}, \"11\": {\"Li\": 1}, \"12\": {\"P\": 1}, \"13\": {\"P\": 1}, \"14\": {\"P\": 1}, \"15\": {\"P\": 1}, \"16\": {\"S\": 1}, \"17\": {\"S\": 1}, \"18\": {\"S\": 1}, \"19\": {\"S\": 1}, \"20\": {\"S\": 1}, \"21\": {\"S\": 1}, \"22\": {\"S\": 1}, \"23\": {\"S\": 1}, \"24\": {\"S\": 1}, \"25\": {\"S\": 1}, \"26\": {\"S\": 1}, \"27\": {\"S\": 1}, \"28\": {\"S\": 1}, \"29\": {\"S\": 1}, \"30\": {\"S\": 1}, \"31\": {\"S\": 1}}" energy=-140.18089294433594 free_energy=-140.18089294433594 stress="-0.002162068383768201 4.2915013182209805e-05 -0.0011832682648673654 4.2915013182209805e-05 -0.0012867162004113197 0.0007003570790402591 -0.0011832682648673654 0.0007003570790402591 -0.00042892576311714947" pbc="T T T"
Li       2.45127167       0.34180777       4.34581619        0       0.20024379      -0.00406079      -0.14524603      -0.02269319      -0.14538661      -0.04651696
Li       3.78457714       7.87328810       8.71421673        1      -0.05149966       0.10761852      -0.09951312       0.05903619      -0.27968037      -0.01138910
Li       5.51690467       7.71802827       2.11141566        2       0.12813210       0.07113975      -0.17038619       0.02724178       0.07580521       0.19537660
Li       0.70115745       0.20964445      10.81592826        3       0.13164795      -0.05571998      -0.25059076       0.00307795       0.06878274       0.09744638
Li       3.78143904       4.28162049       8.77241410        4      -0.29574768       0.29441744       0.09644580      -0.04363235       0.05002521      -0.22066912
Li       2.37128952       3.80715500       4.36640101        5       0.03735907       0.12393471       0.39474804       0.01605096      -0.08769141       0.01893447
Li       0.61850552       3.69168414      10.87983936        6      -0.20203291      -0.02748123       0.09058560       0.02195014       0.01056135      -0.08678136
Li       5.44960863       4.30954089       2.11053235        7      -0.03436042       0.11178877      -0.20402145       0.11354249      -0.09239218       0.17870551
Li       3.22559979       0.15353995       0.08162417        8       0.29835001       0.43734927       0.23006021       0.07107576       0.02378600      -0.10914146
Li       0.01169996       0.06804027       6.51997682        9       0.03746714       0.14414540      -0.02975948      -0.08646877      -0.14172941      -0.06094251
Li       3.03495054       4.02885568      -0.02300738       10      -0.11152569      -0.00202128      -0.20816497      -0.01657679       0.02204457      -0.01633457
Li      -0.00649516       3.86582191       6.56071116       11      -0.05715822      -0.35804544       0.03834788      -0.23704651       0.20300135      -0.12022601
P        0.94879109       2.00131596       1.13851585       12       0.15609161      -0.08782616      -0.18999926       0.20062140      -0.02647834       0.05210806
P        5.23119970       6.03266242      11.88328833       13       0.33225553       0.28140643      -0.37329983      -0.51903844       0.00089748      -0.42028713
P        4.03041391       6.00233400       5.37389545       14       0.45246607      -0.36187947       0.46188955       0.13458057      -0.26182413      -0.11567733
P        2.12496163       2.00276706       7.69890378       15      -0.58781317      -0.76073380       0.27769044      -0.03827417       0.18238141       0.06233898
S        5.06591985       2.01978211       1.30711181       16      -0.12894308       0.49550224      -0.39716069       0.36541790      -0.04590394      -0.04226097
S        1.06513140       5.98144873      11.68535095       17      -0.40072063      -0.45578148      -0.18526965       0.24430895      -0.01523960       0.11768561
S        2.00558979       6.00283160       5.26525160       18       0.26656696       0.03456154       0.63552956      -0.19787109       0.23709537      -0.04167982
S        4.16658399       2.02349176       7.79611057       19       0.39427439       0.32252987      -0.51302202      -0.01970277       0.02118289       0.05536471
S        1.71206008       1.97354879      12.18308136       20       0.16886529      -0.19123726      -0.76545936      -0.18975398       0.15040287       0.59632039
S        4.45164549       6.03635066       0.79625543       21      -0.50202871       0.59865816       0.20197971       0.02575555      -0.02045727      -0.23248501
S        4.78783258       5.99480175       7.29983829       22       0.34116310       0.15547917       0.12823605       0.07853141       0.08271495       0.19693175
S        1.39777256       2.02037669       5.73240451       23      -0.01936455       0.12345078       0.08174747      -0.02876425      -0.10166277       0.13855508
S        1.71057020       0.26341542       1.97649062       24       0.39472931      -0.58182237      -0.55468255      -0.17225006       0.22594395      -0.02972894
S        4.49388058       7.78333925      11.02793354       25      -0.49010956       0.06302018       0.00040946       0.10701147      -0.30181420       0.23064454
S        4.78873865       7.70130702       4.51738901       26      -0.19352964      -0.20621519       0.13158672       0.07498891       0.20365685      -0.15179622
S        1.38478541       0.26021564       8.53632440       27      -0.09776047      -0.14147247       0.13472523       0.15820363       0.26901931      -0.21726824
S        4.45226958       4.30740769      11.01362892       28      -0.35792465       0.23169457       0.27266568       0.06601756       0.22090094       0.39077920
S        1.74111118       3.69889304       2.05279414       29       0.38454433      -0.21509697       0.80837874      -0.36421734      -0.26829618      -0.47952104
S        1.40060771       3.75199715       8.52955581       30      -0.31197838       0.11753789       0.26670675       0.06098033      -0.30526555       0.02012496
S        4.73942137       4.27278629       4.49445606       31       0.11834080      -0.26484080      -0.16515760       0.10789689       0.04561968       0.05138968
