32
Lattice="6.17176593 0.0 0.0 0.0 8.01859859 0.0 0.0 0.0 13.03281824" Properties=species:S:1:pos:R:3:spacegroup_kinds:I:1:momenta:R:3:forces:R:3 spacegroup="P 1" unit_cell=conventional occupancy="_JSON {\"0\": {\"Li\": 1}, \"1\": {\"Li\": 1}, \"2\": {\"Li\": 1}, \"3\": {\"Li\": 1}, \"4\": {\"Li\": 1}, \"5\": {\"Li\": 1}, \"6\": {\"Li\": 1}, \"7\": {\"Li\": 1}, \"8\": {\"Li\": 1}, \"9\": {\"Li\": 1}, \"10\": {\"Li\": 1}, \"11\": {\"Li\": 1}, \"12\": {\"P\": 1}, \"13\": {\"P\": 1}, \"14\": {\"P\": 1}, \"15\": {\"P\": 1}, \"16\": {\"S\": 1}, \"17\": {\"S\": 1}, \"18\": {\"S\": 1}, \"19\": {\"S\": 1}, \"20\": {\"S\": 1}, \"21\": {\"S\": 1}, \"22\": {\"S\": 1}, \"23\": {\"S\": 1}, \"24\": {\"S\": 1}, \"25\": {\"S\": 1}, \"26\": {\"S\": 1}, \"27\": {\"S\": 1}, \"28\": {\"S\": 1}, \"29\": {\"S\": 1}, \"30\": {\"S\": 1}, \"31\": {\"S\": 1}}" energy=-140.31871032714844 free_energy=-140.31871032714844 stress="-0.007170621771365404 -7.136576662958305e-09 -3.052522457025475e-09 -7.136576662958305e-09 -0.008259383030235767 2.01866567905995e-09 -3.052522457025475e-09 2.01866567905995e-09 -0.005266293883323669" pbc="T T T"
Li       2.40329652       0.26860172       4.33400832        0       0.00000000       0.00000000       0.00000000      -0.02603540       0.00549107      -0.00432117
Li       3.76846941       7.74999687       8.69880992        1       0.00000000       0.00000000       0.00000000       0.02603647      -0.00549145       0.00432324
Li       5.48917948       7.74999687       2.18240080        2       0.00000000       0.00000000       0.00000000      -0.02603596      -0.00549083       0.00432322
Li       0.68258645       0.26860172      10.85041744        3       0.00000000       0.00000000       0.00000000       0.02603504       0.00549226      -0.00431918
Li       3.76846941       4.27790102       8.69880992        4       0.00000000       0.00000000       0.00000000       0.02603640       0.00549192       0.00432229
Li       2.40329652       3.74069757       4.33400832        5       0.00000000       0.00000000       0.00000000      -0.02603531      -0.00549087      -0.00432141
Li       0.68258645       3.74069757      10.85041744        6       0.00000000       0.00000000       0.00000000       0.02603574      -0.00549225      -0.00431984
Li       5.48917948       4.27790102       2.18240080        7       0.00000000       0.00000000       0.00000000      -0.02603609       0.00549123       0.00432248
Li       3.08588297       0.00000000       0.00000000        8       0.00000000       0.00000000       0.00000000      -0.00000128      -0.00000181      -0.00000175
Li       0.00000000       0.00000000       6.51640912        9       0.00000000       0.00000000       0.00000000      -0.00000006      -0.00000164       0.00000160
Li       3.08588297       4.00929929       0.00000000       10       0.00000000       0.00000000       0.00000000       0.00000018       0.00000051      -0.00000058
Li       0.00000000       4.00929929       6.51640912       11       0.00000000       0.00000000       0.00000000       0.00000020      -0.00000065      -0.00000059
P        0.94051010       2.00464965       1.16601784       12       0.00000000       0.00000000       0.00000000      -0.02067224      -0.00000119       0.02375985
P        5.23125583       6.01394894      11.86680040       13       0.00000000       0.00000000       0.00000000       0.02066650       0.00000147      -0.02376002
P        4.02639307       6.01394894       5.35039128       14       0.00000000       0.00000000       0.00000000      -0.02066801       0.00000298      -0.02375562
P        2.14537286       2.00464965       7.68242696       15       0.00000000       0.00000000       0.00000000       0.02066880      -0.00000111       0.02375756
S        5.08970823       2.00464965       1.30575389       16       0.00000000       0.00000000       0.00000000      -0.25450584      -0.00000052       0.01679151
S        1.08205770       6.01394894      11.72706435       17       0.00000000       0.00000000       0.00000000       0.25450712       0.00000010      -0.01679151
S        2.00382526       6.01394894       5.21065523       18       0.00000000       0.00000000       0.00000000      -0.25450552       0.00000048      -0.01679205
S        4.16794067       2.00464965       7.82216301       19       0.00000000       0.00000000       0.00000000       0.25450060      -0.00000112       0.01678901
S        1.68132889       2.00464965      12.25955363       20       0.00000000       0.00000000       0.00000000       0.10912258       0.00000006      -0.16719666
S        4.49043704       6.01394894       0.77326461       21       0.00000000       0.00000000       0.00000000      -0.10912079       0.00000011       0.16718180
S        4.76721186       6.01394894       7.28967373       22       0.00000000       0.00000000       0.00000000       0.10912103      -0.00000023       0.16718003
S        1.40455407       2.00464965       5.74314451       23       0.00000000       0.00000000       0.00000000      -0.10911942      -0.00000023      -0.16718119
S        1.67233151       0.29287049       2.00524453       24       0.00000000       0.00000000       0.00000000       0.13957718      -0.21272530       0.08709855
S        4.49943442       7.72572810      11.02757371       25       0.00000000       0.00000000       0.00000000      -0.13957517       0.21272567      -0.08709346
S        4.75821447       7.72572810       4.51116459       26       0.00000000       0.00000000       0.00000000       0.13957545       0.21272486      -0.08709060
S        1.41355146       0.29287049       8.52165365       27       0.00000000       0.00000000       0.00000000      -0.13957514      -0.21272017       0.08709203
S        4.49943442       4.30216979      11.02757371       28       0.00000000       0.00000000       0.00000000      -0.13957699      -0.21272629      -0.08709434
S        1.67233151       3.71642880       2.00524453       29       0.00000000       0.00000000       0.00000000       0.13957851       0.21272701       0.08709954
S        1.41355146       3.71642880       8.52165365       30       0.00000000       0.00000000       0.00000000      -0.13957542       0.21272145       0.08709098
S        4.75821447       4.30216979       4.51116459       31       0.00000000       0.00000000       0.00000000       0.13957667      -0.21272552      -0.08709366
32
Lattice="6.17176593 0.0 0.0 0.0 8.01859859 0.0 0.0 0.0 13.03281824" Properties=species:S:1:pos:R:3:spacegroup_kinds:I:1:momenta:R:3:forces:R:3 spacegroup="P 1" unit_cell=conventional occupancy="_JSON {\"0\": {\"Li\": 1}, \"1\": {\"Li\": 1}, \"2\": {\"Li\": 1}, \"3\": {\"Li\": 1}, \"4\": {\"Li\": 1}, \"5\": {\"Li\": 1}, \"6\": {\"Li\": 1}, \"7\": {\"Li\": 1}, \"8\": {\"Li\": 1}, \"9\": {\"Li\": 1}, \"10\": {\"Li\": 1}, \"11\": {\"Li\": 1}, \"12\": {\"P\": 1}, \"13\": {\"P\": 1}, \"14\": {\"P\": 1}, \"15\": {\"P\": 1}, \"16\": {\"S\": 1}, \"17\": {\"S\": 1}, \"18\": {\"S\": 1}, \"19\": {\"S\": 1}, \"20\": {\"S\": 1}, \"21\": {\"S\": 1}, \"22\": {\"S\": 1}, \"23\": {\"S\": 1}, \"24\": {\"S\": 1}, \"25\": {\"S\": 1}, \"26\": {\"S\": 1}, \"27\": {\"S\": 1}, \"28\": {\"S\": 1}, \"29\": {\"S\": 1}, \"30\": {\"S\": 1}, \"31\": {\"S\": 1}}" energy=-140.31927490234375 free_energy=-140.31927490234375 stress="-0.007151180878281593 2.7704414605977945e-05 1.2219476275276975e-06 2.7704414605977945e-05 -0.008233555592596531 4.1754060475795995e-06 1.2219476275276975e-06 4.1754060475795995e-06 -0.005169240292161703" pbc="T T T"
Li       2.40458161       0.26797528       4.33256819        0       0.02864997      -0.08544673      -0.08979419      -0.02778057       0.00898413       0.00004066
Li       3.76693065       7.74961742       8.69908851        1      -0.01821547       0.01869733       0.02466690       0.02906010      -0.00822681       0.00475629
Li       5.49021039       7.74966777       2.18200364        2       0.03650026      -0.06120025       0.02324865      -0.02696881      -0.00593671       0.00469722
Li       0.68285863       0.26720513      10.85087865        3      -0.02833107      -0.10174740       0.02995389       0.02657626       0.00823894      -0.00278553
Li       3.77039663       4.27556928       8.69724222        4       0.13652127      -0.06046811      -0.05796725       0.02280882       0.00887594       0.00829181
Li       2.40279482       3.74137705       4.33442597        5      -0.05938105       0.01063532       0.00501826      -0.02533729      -0.00735956      -0.00518641
Li       0.68112114       3.74009591      10.85013873        6      -0.06418135      -0.01654737       0.00468066       0.02955352      -0.00292118      -0.00443139
Li       5.48725634       4.27945278       2.18250648        7      -0.12341955       0.05734346       0.00955125      -0.01903661       0.00287733       0.00351139
Li       3.08606043       0.00237276      -0.00181115        8       0.05347162       0.10558772      -0.04381060      -0.00313460      -0.00018673       0.00305545
Li       0.00005613      -0.00178107       6.51621145        9       0.05246730      -0.07522827      -0.02624530       0.00312859       0.00240433       0.00015841
Li       3.08439302       4.00904646       0.00022935       10      -0.04796138      -0.00084770       0.00309814       0.00055733       0.00110329      -0.00587978
Li       0.00108009       4.00734616       6.51283278       11      -0.02385437      -0.08395841      -0.16324938       0.00209796       0.00109443       0.00568549
P        0.93950905       2.00413343       1.16705755       12      -0.21766470      -0.03080419       0.24234839       0.01311214       0.01124811      -0.00202014
P        5.22962417       6.01520081      11.86737317       13      -0.26887091       0.14908560       0.10963721       0.05886012      -0.01730339      -0.03810820
P        4.02574987       6.01374420       5.35125145       14      -0.04207093      -0.07786371       0.12863210      -0.01044751       0.00422952      -0.03518572
P        2.14616359       2.00386893       7.68349223       15       0.02846098      -0.12983805       0.23377888      -0.00765128       0.00607702       0.00171386
S        5.09019990       2.00513562       1.30511633       16       0.04446263       0.04313614      -0.09795263      -0.27306399      -0.00222418       0.02139060
S        1.08214553       6.01480560      11.72651835       17      -0.01074099       0.21574730      -0.12547336       0.23168282      -0.00289991      -0.01245546
S        2.00303858       6.01443123       5.21083405       18      -0.15430077       0.07173030       0.14030854      -0.24733628      -0.00006942      -0.01572237
S        4.16766085       2.00424084       7.82259965       19      -0.17323365      -0.14663360       0.08597147       0.26956469      -0.00665105       0.01630919
S        1.68129858       2.00465408      12.25881187       20      -0.05843152      -0.02900254      -0.20333789       0.10082377      -0.00166793      -0.14752842
S        4.48970722       6.01460397       0.77283386       21      -0.13038607       0.14187893      -0.04679932      -0.11434893       0.00144963       0.17914434
S        4.76746081       6.01288321       7.29025479       22       0.17231958      -0.09759054       0.22511222       0.10646667       0.00314123       0.16194256
S        1.40408854       2.00486863       5.74252834       23      -0.06694658       0.13404613      -0.10975181      -0.09860121      -0.00812326      -0.14737356
S        1.67324755       0.29349701       2.00583416       24       0.08571397       0.03104487       0.11419377       0.13729921      -0.21949856       0.08485261
S        4.49941595       7.72649900      11.02808667       25       0.13651265       0.17701338      -0.03221889      -0.14551923       0.22208369      -0.09441330
S        4.75902265       7.72561030       4.51051499       26       0.34179063      -0.01377213      -0.33482370       0.13176565       0.19821528      -0.07728013
S        1.41321319       0.29253233       8.52295385       27      -0.10328315      -0.07179671       0.27219382      -0.13831574      -0.21073335       0.08030733
S        4.50004978       4.30266462      11.02716452       28       0.10132596       0.05118466      -0.16009249      -0.14599161      -0.20841071      -0.08286923
S        1.67378264       3.71581012       2.00493696       29       0.37118377      -0.12295985      -0.15894894       0.12852179       0.21366109       0.09033394
S        1.41403014       3.71623330       8.52098577       30       0.11391592       0.06225157      -0.03471079      -0.13972075       0.21254320       0.08850671
S        4.75825578       4.30180963       4.51093350       31      -0.11202302      -0.06367714       0.03278241       0.13137501      -0.20401454      -0.08345833
32
Lattice="6.17176593 0.0 0.0 0.0 8.01859859 0.0 0.0 0.0 13.03281824" Properties=species:S:1:pos:R:3:spacegroup_kinds:I:1:momenta:R:3:forces:R:3 spacegroup="P 1" unit_cell=conventional occupancy="_JSON {\"0\": {\"Li\": 1}, \"1\": {\"Li\": 1}, \"2\": {\"Li\": 1}, \"3\": {\"Li\": 1}, \"4\": {\"Li\": 1}, \"5\": {\"Li\": 1}, \"6\": {\"Li\": 1}, \"7\": {\"Li\": 1}, \"8\": {\"Li\": 1}, \"9\": {\"Li\": 1}, \"10\": {\"Li\": 1}, \"11\": {\"Li\": 1}, \"12\": {\"P\": 1}, \"13\": {\"P\": 1}, \"14\": {\"P\": 1}, \"15\": {\"P\": 1}, \"16\": {\"S\": 1}, \"17\": {\"S\": 1}, \"18\": {\"S\": 1}, \"19\": {\"S\": 1}, \"20\": {\"S\": 1}, \"21\": {\"S\": 1}, \"22\": {\"S\": 1}, \"23\": {\"S\": 1}, \"24\": {\"S\": 1}, \"25\": {\"S\": 1}, \"26\": {\"S\": 1}, \"27\": {\"S\": 1}, \"28\": {\"S\": 1}, \"29\": {\"S\": 1}, \"30\": {\"S\": 1}, \"31\": {\"S\": 1}}" energy=-140.32176208496094 free_energy=-140.32176208496094 stress="-0.006859786808490753 7.081034709699452e-05 1.9751600120798685e-05 7.081034709699452e-05 -0.008015726692974567 -3.841112265945412e-05 1.9751600120798685e-05 -3.841112265945412e-05 -0.0049462211318314075" pbc="T T T"
Li       2.40401934       0.26684488       4.33026786        0      -0.04526111      -0.00209396      -0.05781290      -0.02196526       0.01179950       0.00781768
Li       3.76791401       7.75037411       8.70047701        1       0.05813709       0.06688345       0.09074948       0.02824138      -0.01374927       0.00360469
Li       5.48964461       7.74741370       2.18083822        2      -0.03988797      -0.06963172      -0.10157924      -0.02253129      -0.00047302       0.00446004
Li       0.68284349       0.26359604      10.85225691        3       0.02671929      -0.07687854       0.03151498       0.02805887       0.01518863      -0.00322829
Li       3.77614610       4.27174926       8.69667425        4       0.21803545      -0.16889307       0.03434869       0.01223418       0.01423661       0.00889759
Li       2.39971217       3.73922370       4.33215715        5      -0.09878231      -0.06861879      -0.08941729      -0.01696146      -0.00042773       0.00205426
Li       0.67883602       3.73902146      10.84951556        6      -0.01818493      -0.01343766       0.03120857       0.03541161      -0.00030436      -0.00380633
Li       5.48326882       4.28385418       2.18218018        7      -0.08220983       0.14831077      -0.08877980      -0.00596678      -0.00785856       0.00378897
Li       3.08692083       0.00534300      -0.00128860        8       0.03352483       0.10508036       0.05930235      -0.00521859       0.00207938       0.00003868
Li       0.00257490      -0.00123701       6.51443375        9       0.04194885       0.09301898       0.01308478       0.00261647      -0.00055819       0.00066120
Li       3.08105660       4.01063192       0.00154776       10      -0.11896380       0.03667394      -0.01127203       0.00245007      -0.00035827      -0.01968893
Li      -0.00122997       4.00567288       6.51011239       11      -0.07615565       0.01284864      -0.06415426       0.00961819      -0.00047430       0.01314756
P        0.93860953       2.00419402       1.16870348       12       0.03113393       0.01927676       0.18923322       0.03974664       0.00420181      -0.04464813
P        5.22769240       6.01594263      11.86848742       13      -0.31605017       0.09233757       0.16735858       0.09702697      -0.01464514      -0.08614357
P        4.02446939       6.01311531       5.35132648       14      -0.09794727      -0.09407598      -0.01348596       0.00220115       0.02587282      -0.02793201
P        2.14610285       2.00335354       7.68572120       15      -0.01945179       0.03028573       0.42850200      -0.03934688       0.00478307      -0.03309943
S        5.08949767       2.00557591       1.30475842       16      -0.20411283       0.05879554      -0.06741265      -0.26432401       0.00206755       0.02840555
S        1.08208913       6.01659492      11.72607605       17      -0.07101708       0.07850233       0.00919710       0.20698138      -0.01686367      -0.00520813
S        2.00032515       6.01507587       5.21191453       18      -0.44365466       0.02587797       0.12019717      -0.21064341      -0.00144117      -0.01834559
S        4.16630450       2.00311581       7.82290018       19      -0.26807721      -0.07311190       0.01496633       0.29419544      -0.01083607       0.01644698
S        1.68124579       2.00296401      12.25664681       20       0.03267265      -0.43609084      -0.30567292       0.08529361       0.00554110      -0.09844767
S        4.48873483       6.01574304       0.77151236       21      -0.20955970       0.26464097      -0.26480239      -0.12686658      -0.00079271       0.20439994
S        4.76861540       6.01156522       7.29177848       22       0.08104573      -0.26756252       0.13934243       0.09286953       0.01065365       0.12905756
S        1.40433785       2.00634606       5.74133650       23       0.07567950       0.13246029      -0.20170499      -0.09091823      -0.02193983      -0.11451034
S        1.67409668       0.29349195       2.00742155       24       0.24857608       0.02580927       0.30166262       0.12602554      -0.21116991       0.07435127
S        4.50012453       7.72892570      11.02853613       25       0.16966430       0.38878463       0.09027465      -0.14918980       0.20758671      -0.08684439
S        4.76258539       7.72470110       4.50764343       26       0.58259169      -0.06721533      -0.27140649       0.10159651       0.16687989      -0.05259043
S        1.41279479       0.29157633       8.52484722       27      -0.10010397      -0.20043611       0.21158130      -0.13447000      -0.20102821       0.06843285
S        4.50040540       4.30277573      11.02601372       28      -0.14050945       0.07920970      -0.21832699      -0.15018430      -0.19597641      -0.06615841
S        1.67740505       3.71537640       2.00507086       29       0.52228461      -0.05539915       0.00852105       0.10136729       0.21024817       0.08605154
S        1.41465381       3.71657970       8.52014709       30       0.06557507       0.08584809      -0.13563398      -0.14010061       0.21597369       0.09367300
S        4.75873537       4.30135815       4.51086029       31       0.16234065      -0.15119942      -0.04958339       0.11275247      -0.19821578      -0.08463757
32
Lattice="6.17176593 0.0 0.0 0.0 8.01859859 0.0 0.0 0.0 13.03281824" Properties=species:S:1:pos:R:3:spacegroup_kinds:I:1:momenta:R:3:forces:R:3 spacegroup="P 1" unit_cell=conventional occupancy="_JSON {\"0\": {\"Li\": 1}, \"1\": {\"Li\": 1}, \"2\": {\"Li\": 1}, \"3\": {\"Li\": 1}, \"4\": {\"Li\": 1}, \"5\": {\"Li\": 1}, \"6\": {\"Li\": 1}, \"7\": {\"Li\": 1}, \"8\": {\"Li\": 1}, \"9\": {\"Li\": 1}, \"10\": {\"Li\": 1}, \"11\": {\"Li\": 1}, \"12\": {\"P\": 1}, \"13\": {\"P\": 1}, \"14\": {\"P\": 1}, \"15\": {\"P\": 1}, \"16\": {\"S\": 1}, \"17\": {\"S\": 1}, \"18\": {\"S\": 1}, \"19\": {\"S\": 1}, \"20\": {\"S\": 1}, \"21\": {\"S\": 1}, \"22\": {\"S\": 1}, \"23\": {\"S\": 1}, \"24\": {\"S\": 1}, \"25\": {\"S\": 1}, \"26\": {\"S\": 1}, \"27\": {\"S\": 1}, \"28\": {\"S\": 1}, \"29\": {\"S\": 1}, \"30\": {\"S\": 1}, \"31\": {\"S\": 1}}" energy=-140.3234100341797 free_energy=-140.3234100341797 stress="-0.006485756020992994 0.00011187674681423232 -2.5629902665968984e-05 0.00011187674681423232 -0.0076889474876224995 -0.00013745491742156446 -2.5629902665968984e-05 -0.00013745491742156446 -0.00475523853674531" pbc="T T T"
Li       2.40434980       0.26883180       4.32998535        0       0.02858884       0.12053897      -0.00309930      -0.01709831       0.00537453       0.01230808
Li       3.76889345       7.75478385       8.70368569        1       0.02651146       0.18677979       0.02247613       0.02866850      -0.02900208      -0.00049538
Li       5.48998866       7.74526762       2.17660559        2      -0.00327962      -0.03101750      -0.16319718      -0.01625359       0.00666642       0.01247748
Li       0.68499635       0.26202371      10.85324744        3       0.04031125       0.03800047       0.00694114       0.02609582       0.01501435      -0.00397884
Li       3.78389063       4.26558126       8.69871606        4       0.14968849      -0.21982952       0.09868921      -0.00319438       0.02715553       0.00236672
Li       2.39505731       3.73718985       4.32877703        5      -0.12137137      -0.07580960      -0.11419292      -0.00501239       0.00752035       0.01208924
Li       0.67794888       3.73888352      10.85036088        6      -0.06079293      -0.02348879      -0.05505806       0.03563217      -0.00023216      -0.00480042
Li       5.48232880       4.28835355       2.17902379        7      -0.02724997       0.13358580      -0.03858140      -0.00215739      -0.01841713       0.01183179
Li       3.09305283       0.00863340      -0.00188077        8       0.20239282       0.17123590      -0.05458263      -0.01602464       0.01156930       0.00521831
Li       0.00440283       0.00138191       6.51692594        9       0.05032682       0.05175460       0.09336040      -0.00302157      -0.00839962      -0.00796890
Li       3.07435778       4.01407494       0.00140747       10      -0.18711343       0.09805573      -0.01074102       0.00743747      -0.00120596      -0.03678158
Li      -0.00285338       4.00486634       6.50859821       11      -0.10156428      -0.02594266      -0.01618795       0.01448718       0.00019228       0.01527561
P        0.93906748       2.00506889       1.17025001       12       0.09256184       0.26043889       0.18120932       0.04443619      -0.05243943      -0.09892474
P        5.22589491       6.01662889      11.87027458       13      -0.20360667       0.21424300       0.33041620       0.13435513      -0.01947982      -0.15757535
P        4.02281495       6.01305494       5.35091425       14      -0.21478159      -0.03427042      -0.06003085       0.01603857       0.02919376      -0.01442607
P        2.14612745       2.00454351       7.68824985       15       0.22082762       0.10523477       0.25119220      -0.09872253      -0.02034400      -0.06187125
S        5.08948878       2.00527954       1.30452522       16       0.02572483      -0.12490024      -0.00975164      -0.24935502       0.01221552       0.03334518
S        1.08231031       6.01709908      11.72611135       17       0.07789020       0.05306629      -0.01063429       0.17778826      -0.02793633       0.00305803
S        1.99673077       6.01409764       5.21434078       18      -0.44386441      -0.32641738       0.51429939      -0.16429964       0.00801365      -0.02738909
S        4.16449099       2.00287853       7.82250953       19      -0.20050599       0.01233994      -0.05250687       0.32358816      -0.01506242       0.02040077
S        1.68161312       1.99997974      12.25416994       20       0.19388694      -0.42838387      -0.43927992       0.07303376       0.02039557      -0.05132054
S        4.48752838       6.01780317       0.76973642       21      -0.15396572       0.20423377      -0.15088348      -0.14148055      -0.01172426       0.24077316
S        4.76898528       6.00916290       7.29327261       22       0.03546311      -0.38080125       0.16004957       0.07716704       0.02674525       0.09858833
S        1.40451814       2.00725690       5.74034385       23      -0.04214795       0.21152778      -0.02753108      -0.08452364      -0.02859591      -0.07656568
S        1.67595090       0.29377834       2.00918043       24       0.23436004       0.12807801       0.04921250       0.11764380      -0.19858132       0.06207219
S        4.50189755       7.73213050      11.02993986       25       0.19721354       0.36526888       0.24546436      -0.14611545       0.19131699      -0.08234175
S        4.76666462       7.72430921       4.50514130       26       0.50375309       0.02672039      -0.17468475       0.06898964       0.13163108      -0.02962694
S        1.41158742       0.28876664       8.52564806       27      -0.19984873      -0.56109761       0.00079254      -0.11310934      -0.15612592       0.05300308
S        4.49861236       4.30341040      11.02358236       28      -0.23479019       0.06848604      -0.34458665      -0.14058167      -0.17254788      -0.03277336
S        1.68109770       3.71360610       2.00355605       29       0.58804626      -0.28748515      -0.26970669       0.09117982       0.24247286       0.09900493
S        1.41334344       3.71849528       8.51934068       30      -0.32219947       0.34879573      -0.12054671      -0.12628853       0.20394701       0.09820751
S        4.75906517       4.29968729       4.51169707       31      -0.15046481      -0.27894077       0.16168042       0.09069711      -0.17933027      -0.09318049
32
Lattice="6.17176593 0.0 0.0 0.0 8.01859859 0.0 0.0 0.0 13.03281824" Properties=species:S:1:pos:R:3:spacegroup_kinds:I:1:momenta:R:3:forces:R:3 spacegroup="P 1" unit_cell=conventional occupancy="_JSON {\"0\": {\"Li\": 1}, \"1\": {\"Li\": 1}, \"2\": {\"Li\": 1}, \"3\": {\"Li\": 1}, \"4\": {\"Li\": 1}, \"5\": {\"Li\": 1}, \"6\": {\"Li\": 1}, \"7\": {\"Li\": 1}, \"8\": {\"Li\": 1}, \"9\": {\"Li\": 1}, \"10\": {\"Li\": 1}, \"11\": {\"Li\": 1}, \"12\": {\"P\": 1}, \"13\": {\"P\": 1}, \"14\": {\"P\": 1}, \"15\": {\"P\": 1}, \"16\": {\"S\": 1}, \"17\": {\"S\": 1}, \"18\": {\"S\": 1}, \"19\": {\"S\": 1}, \"20\": {\"S\": 1}, \"21\": {\"S\": 1}, \"22\": {\"S\": 1}, \"23\": {\"S\": 1}, \"24\": {\"S\": 1}, \"25\": {\"S\": 1}, \"26\": {\"S\": 1}, \"27\": {\"S\": 1}, \"28\": {\"S\": 1}, \"29\": {\"S\": 1}, \"30\": {\"S\": 1}, \"31\": {\"S\": 1}}" energy=-140.32208251953125 free_energy=-140.32208251953125 stress="-0.006279089022427797 0.00013212629710324109 -0.00014105717127677053 0.00013212629710324109 -0.007301717065274715 -0.00027303019305691123 -0.00014105717127677053 -0.00027303019305691123 -0.004566784016788006" pbc="T T T"
Li       2.40439254       0.27339657       4.32789719        0       0.01738705       0.16037210      -0.04398595      -0.01136473      -0.00819115       0.01739079
Li       3.76860382       7.76217171       8.70564503        1      -0.03769396       0.25588518       0.03621970       0.03418352      -0.05306153      -0.00277099
Li       5.49025620       7.74266707       2.17029062        2       0.04024210      -0.10641369      -0.17517567      -0.00795101       0.01536972       0.02727887
Li       0.68435037       0.26306069      10.85475314        3      -0.09072200       0.00381120       0.12259525       0.02873643       0.01167748      -0.00638711
Li       3.79015035       4.25852804       8.70171078        4       0.19358598      -0.17011342       0.10675943      -0.01705204       0.04513887      -0.00571691
Li       2.39003938       3.73710554       4.32648460        5      -0.17283883       0.10109926      -0.07526801       0.00491492       0.01128193       0.02203289
Li       0.67630542       3.73943093      10.84967362        6      -0.07136917       0.01278284       0.00650085       0.03606402      -0.00363036      -0.00260051
Li       5.47944559       4.29078340       2.17469112        7      -0.11360934       0.09015911      -0.16683049       0.00435036      -0.02572441       0.02571074
Li       3.10100564       0.01385456      -0.00374238        8       0.25892062       0.10887284      -0.05897586      -0.02913704       0.02056848       0.01428467
Li       0.00654923       0.00390915       6.52089784        9       0.07542983       0.04627372       0.12946979      -0.00981595      -0.01804386      -0.02091155
Li       3.06864367       4.01702530       0.00111034       10      -0.17661332       0.11603557       0.01156746       0.01164858      -0.00187043      -0.05301788
Li      -0.00635167       4.00154741       6.51036609       11      -0.04958848      -0.17498219       0.07356208       0.01430860       0.00201995       0.00966895
P        0.93911478       2.00790044       1.17117555       12      -0.05658366       0.30447137      -0.02652120       0.06299651      -0.13555518      -0.15701817
P        5.22520599       6.01737863      11.87263247       13      -0.05045055      -0.00752997       0.25816954       0.14589812      -0.02255591      -0.23164023
P        4.02087479       6.01300957       5.35122925       14      -0.30331997      -0.11457757       0.05076673       0.04952057       0.02374515      -0.01765363
P        2.14704414       2.00568824       7.69028603       15       0.14383980       0.22145695       0.25656297      -0.17893146      -0.04319638      -0.07935198
S        5.08989160       2.00519430       1.30426844       16       0.08435722       0.17101041      -0.00523277      -0.24889293       0.02409526       0.03445249
S        1.08246385       6.01686392      11.72514723       17       0.01227771      -0.05724299      -0.35347511       0.15624645      -0.03331690       0.01158609
S        1.99460293       6.01127379       5.21865269       18      -0.14639577      -0.35595255       0.56950806      -0.14677867       0.03231544      -0.03986384