32
Lattice="6.17176593 0.0 0.0 0.0 8.01859859 0.0 0.0 0.0 13.03281824" Properties=species:S:1:pos:R:3:spacegroup_kinds:I:1:forces:R:3 spacegroup="P 1" unit_cell=conventional occupancy="_JSON {\"0\": {\"Li\": 1}, \"1\": {\"Li\": 1}, \"2\": {\"Li\": 1}, \"3\": {\"Li\": 1}, \"4\": {\"Li\": 1}, \"5\": {\"Li\": 1}, \"6\": {\"Li\": 1}, \"7\": {\"Li\": 1}, \"8\": {\"Li\": 1}, \"9\": {\"Li\": 1}, \"10\": {\"Li\": 1}, \"11\": {\"Li\": 1}, \"12\": {\"P\": 1}, \"13\": {\"P\": 1}, \"14\": {\"P\": 1}, \"15\": {\"P\": 1}, \"16\": {\"S\": 1}, \"17\": {\"S\": 1}, \"18\": {\"S\": 1}, \"19\": {\"S\": 1}, \"20\": {\"S\": 1}, \"21\": {\"S\": 1}, \"22\": {\"S\": 1}, \"23\": {\"S\": 1}, \"24\": {\"S\": 1}, \"25\": {\"S\": 1}, \"26\": {\"S\": 1}, \"27\": {\"S\": 1}, \"28\": {\"S\": 1}, \"29\": {\"S\": 1}, \"30\": {\"S\": 1}, \"31\": {\"S\": 1}}" energy=-140.31871032714844 free_energy=-140.31871032714844 stress="-0.007170621771365404 -7.136576662958305e-09 -3.052522457025475e-09 -7.136576662958305e-09 -0.008259383030235767 2.01866567905995e-09 -3.052522457025475e-09 2.01866567905995e-09 -0.005266293883323669" pbc="T T T"
Li       2.40329652       0.26860172       4.33400832        0      -0.02603540       0.00549107      -0.00432117
Li       3.76846941       7.74999687       8.69880992        1       0.02603647      -0.00549145       0.00432324
Li       5.48917948       7.74999687       2.18240080        2      -0.02603596      -0.00549083       0.00432322
Li       0.68258645       0.26860172      10.85041744        3       0.02603504       0.00549226      -0.00431918
Li       3.76846941       4.27790102       8.69880992        4       0.02603640       0.00549192       0.00432229
Li       2.40329652       3.74069757       4.33400832        5      -0.02603531      -0.00549087      -0.00432141
Li       0.68258645       3.74069757      10.85041744        6       0.02603574      -0.00549225      -0.00431984
Li       5.48917948       4.27790102       2.18240080        7      -0.02603609       0.00549123       0.00432248
Li       3.08588297       0.00000000       0.00000000        8      -0.00000128      -0.00000181      -0.00000175
Li       0.00000000       0.00000000       6.51640912        9      -0.00000006      -0.00000164       0.00000160
Li       3.08588297       4.00929929       0.00000000       10       0.00000018       0.00000051      -0.00000058
Li       0.00000000       4.00929929       6.51640912       11       0.00000020      -0.00000065      -0.00000059
P        0.94051010       2.00464965       1.16601784       12      -0.02067224      -0.00000119       0.02375985
P        5.23125583       6.01394894      11.86680040       13       0.02066650       0.00000147      -0.02376002
P        4.02639307       6.01394894       5.35039128       14      -0.02066801       0.00000298      -0.02375562
P        2.14537286       2.00464965       7.68242696       15       0.02066880      -0.00000111       0.02375756
S        5.08970823       2.00464965       1.30575389       16      -0.25450584      -0.00000052       0.01679151
S        1.08205770       6.01394894      11.72706435       17       0.25450712       0.00000010      -0.01679151
S        2.00382526       6.01394894       5.21065523       18      -0.25450552       0.00000048      -0.01679205
S        4.16794067       2.00464965       7.82216301       19       0.25450060      -0.00000112       0.01678901
S        1.68132889       2.00464965      12.25955363       20       0.10912258       0.00000006      -0.16719666
S        4.49043704       6.01394894       0.77326461       21      -0.10912079       0.00000011       0.16718180
S        4.76721186       6.01394894       7.28967373       22       0.10912103      -0.00000023       0.16718003
S        1.40455407       2.00464965       5.74314451       23      -0.10911942      -0.00000023      -0.16718119
S        1.67233151       0.29287049       2.00524453       24       0.13957718      -0.21272530       0.08709855
S        4.49943442       7.72572810      11.02757371       25      -0.13957517       0.21272567      -0.08709346
S        4.75821447       7.72572810       4.51116459       26       0.13957545       0.21272486      -0.08709060
S        1.41355146       0.29287049       8.52165365       27      -0.13957514      -0.21272017       0.08709203
S        4.49943442       4.30216979      11.02757371       28      -0.13957699      -0.21272629      -0.08709434
S        1.67233151       3.71642880       2.00524453       29       0.13957851       0.21272701       0.08709954
S        1.41355146       3.71642880       8.52165365       30      -0.13957542       0.21272145       0.08709098
S        4.75821447       4.30216979       4.51116459       31       0.13957667      -0.21272552      -0.08709366
