56
Lattice="10.7619164 0.0 0.0 -9.665296305262016 4.732958053065482 0.0 -0.5483100463354086 -2.3664790220718444 10.484177494289693" Properties=species:S:1:pos:R:3:spacegroup_kinds:I:1:momenta:R:3:forces:R:3 spacegroup="P 1" unit_cell=conventional occupancy="_JSON {\"0\": {\"H\": 1}, \"1\": {\"H\": 1}, \"2\": {\"H\": 1}, \"3\": {\"H\": 1}, \"4\": {\"H\": 1}, \"5\": {\"H\": 1}, \"6\": {\"H\": 1}, \"7\": {\"H\": 1}, \"8\": {\"H\": 1}, \"9\": {\"H\": 1}, \"10\": {\"H\": 1}, \"11\": {\"H\": 1}, \"12\": {\"H\": 1}, \"13\": {\"H\": 1}, \"14\": {\"H\": 1}, \"15\": {\"H\": 1}, \"16\": {\"H\": 1}, \"17\": {\"H\": 1}, \"18\": {\"H\": 1}, \"19\": {\"H\": 1}, \"20\": {\"H\": 1}, \"21\": {\"H\": 1}, \"22\": {\"H\": 1}, \"23\": {\"H\": 1}, \"24\": {\"H\": 1}, \"25\": {\"H\": 1}, \"26\": {\"H\": 1}, \"27\": {\"H\": 1}, \"28\": {\"H\": 1}, \"29\": {\"H\": 1}, \"30\": {\"H\": 1}, \"31\": {\"H\": 1}, \"32\": {\"C\": 1}, \"33\": {\"C\": 1}, \"34\": {\"C\": 1}, \"35\": {\"C\": 1}, \"36\": {\"C\": 1}, \"37\": {\"C\": 1}, \"38\": {\"C\": 1}, \"39\": {\"C\": 1}, \"40\": {\"C\": 1}, \"41\": {\"C\": 1}, \"42\": {\"C\": 1}, \"43\": {\"C\": 1}, \"44\": {\"C\": 1}, \"45\": {\"C\": 1}, \"46\": {\"C\": 1}, \"47\": {\"C\": 1}, \"48\": {\"O\": 1}, \"49\": {\"O\": 1}, \"50\": {\"O\": 1}, \"51\": {\"O\": 1}, \"52\": {\"O\": 1}, \"53\": {\"O\": 1}, \"54\": {\"O\": 1}, \"55\": {\"O\": 1}}" energy=-313.621826171875 free_energy=-313.621826171875 stress="-0.006905342917889357 -0.0013853474520146847 -0.004504641052335501 -0.0013853474520146847 0.0094391955062747 0.005599991884082556 -0.004504641052335501 0.005599991884082556 0.013407060876488686" pbc="T T T"
H        0.49738824       1.84331600       1.77824712        0      -0.10613522      -0.09781609       0.11564500      -0.18202150       0.31332526       0.59539682
H        0.10556107      -0.11663784       8.27653490        1       0.04015880      -0.13169674       0.14437765      -0.36897558      -0.78897220       0.22591498
H        6.62289156      -0.91207435       5.20265712        2      -0.16864304       0.10450143      -0.19164007       0.98594230      -0.03108479       0.77321756
H        3.36922874       0.56254866       5.08036059        3       0.12068272      -0.12391033       0.11663971      -0.39408547      -0.59534228      -0.23535755
H        5.95301326       0.59228758       3.38812087        4       0.14111052      -0.33747256      -0.07871959      -0.93093151      -0.50391984       0.87668705
H        5.01743993       0.42520635       7.32442038        5      -0.23162885       0.06489453      -0.14197768      -0.38864395      -1.26106739      -0.47848609
H       -1.57731799       0.54128671      10.53958402        6      -0.12407208      -0.08816680      -0.07763640      -0.37742856      -0.46800929       0.30720985
H        2.69863442       2.00433380       0.26116697        7      -0.05403997       0.01557127      -0.10225880      -0.72494781      -0.67532551      -0.86529940
H       -1.22304003       1.63674010       1.75940518        8      -0.05424858       0.24253118      -0.13897882      -0.49741060      -0.09367616       0.10530673
H       -8.93359130       2.96970971       8.47514796        9      -0.06041864      -0.12559731      -0.10761871       0.36620504      -0.63051462       0.55257392
H       -2.26849149       4.25936945       6.83350198       10       0.20578896       0.12214540       0.33238078      -0.06950018      -0.47619537      -0.34378007
H       -6.68836094       4.95609526       3.39407459       11      -0.06212313       0.10325971      -0.15892900       0.13254008      -0.56484962       0.15243480
H       -3.12925506       0.32645817       3.01954369       12       0.09286554       0.17897962      -0.00989627       0.31407487       0.11227063       0.01379918
H       -6.80751046       1.79512291       7.74588596       13       0.11313844      -0.05419776      -0.04504042      -2.35594511       0.59494829      -0.52510154
H       -1.67751185       0.97559845       8.80862541       14       0.00516173      -0.30016443      -0.16851665      -0.66054028       0.17536797       0.81923914
H       -7.85157890       2.25969154       2.02092872       15       0.06193784       0.16966584       0.04108841       0.45021498       0.30492961      -0.97371662
H       -1.03679257       0.54726051       4.10971788       16       0.09384707       0.18126344      -0.07858791       0.29054585       0.47456607       0.73892593
H        1.41496409       2.60741850       5.94194780       17       0.17914765       0.16207996      -0.08142846       0.04019640      -0.18982354       0.67822933
H       -0.64058366       2.00872447       6.06364853       18      -0.05634320       0.12337237       0.04032549      -0.53551316       0.51595902      -0.09275825
H        0.85977709      -0.92446384       4.06230130       19       0.08226714       0.01615468       0.13954143      -0.43777409      -0.05474924       0.42652562
H        7.07832381       1.52716377       0.77918399       20       0.03745894       0.06298868      -0.11847479      -0.51152563      -0.36470428      -0.19009435
H       -5.65481843       2.28567774       9.73115038       21       0.07723511       0.36926323      -0.07796236       0.09997551      -0.39059103       0.05155081
H        6.08095703      -2.02800067       9.57309390       22       0.04996166       0.13992342      -0.04251497       0.10452010      -0.44056052      -0.00563887
H       -5.39307838       3.26285523       1.28813536       23      -0.08191929      -0.05415510       0.26987127      -0.86360025      -0.75486201      -0.77635407
H       -0.07299353       0.27971728       1.81916991       24       0.13897968       0.34269478       0.14181165      -0.42564300      -0.34437278       0.62044752
H       -1.06700036      -1.51564002       8.21163900       25      -0.20145820       0.01373074       0.07616482      -0.17210758      -0.24385037       0.51164883
H       -2.96209921       2.60530255       6.43440242       26       0.06315620      -0.07175233      -0.16381484       0.16209638       0.09858251       0.31126651
H       -6.35719995       3.51669247       4.57538922       27       0.16449692       0.18567861       0.02440232      -0.60310531       1.40275168      -0.34498706
H       -3.82677301       2.00991115       3.18430549       28       0.08980683      -0.11710770      -0.00472185       0.23108850       0.02061014      -0.20068489
H       -5.17636441       2.03285252       7.19923494       29       0.10905188      -0.18779801       0.15106033      -0.36808324      -0.23565157       0.74253821
H       -0.79357722       4.53174512      -0.43569587       30      -0.12628166      -0.10201758      -0.01900615      -0.09977034       0.06218790       0.11299421
H        2.31575678       1.30675563      11.36317786       31       0.12164196       0.07458609      -0.08519286       0.08103966      -0.48911166      -0.09376651
C       -0.37163606       1.38708494       3.80590665       32       0.82677453       0.29513573       0.09766175       0.43047422      -0.84297264      -2.02712822
C        0.11847910      -1.18778287       6.49983780       33      -0.62840536      -0.18736781      -0.14628044      -0.37041584       0.27213842      -0.96542507
C       -0.97555888       2.96185319       5.57576502       34      -0.36449015      -1.07571489       0.20948461       0.37155101       0.17795947       0.59156013
C        1.35011574      -0.15700504       4.68315327       35      -0.02227852       0.95830796       0.13073098       0.73834312       1.50494671       0.40339425
C        6.36784097       0.86650848       1.33870127       36       0.30590252       0.88519495       1.28776817       1.97929406      -0.30295834       0.89318949
C       -5.53677824       1.29363389       9.24627687       37       0.27688588      -0.37684103       0.66636757      -0.66257906      -0.77055687       0.58605075
C       -3.39932674       1.69730067      10.02118769       38      -0.84111672      -0.44256904       0.59809968       0.37920406       0.55000025       0.65976667
C        4.71880441       2.50518187       0.70336296       39       0.38984752       0.88224363      -0.51305381      -0.59658897       1.44277871       0.49371490
C       -0.32683925       1.26219685       2.24609219       40      -0.63948276       0.50545949       0.23424356       0.77351689       0.79703164      -0.39456272
C       -0.05210457      -1.19852069       8.01058163       41       0.11582296      -0.65736450      -0.92748026       0.85171139       1.37443340      -1.02300191
C       -2.37909934       3.46525772       6.06278710       42      -0.05353460       0.08467156      -0.15002979      -0.40584385      -0.60532528      -1.67187476
C        2.83806343      -0.17358539       4.41939530       43       0.55230155       0.76816393      -0.43149879       1.06821477      -0.67910612       0.54368186
C        6.77902017       0.98017859       2.84378922       44      -1.12306782      -0.45029024       0.26639916      -0.51439881       0.02887971      -1.28144205
C       -5.86817686       1.36776535       7.79427939       45      -0.98979684      -0.05587588      -0.83441753       2.87887526       1.13960278      -0.55466402
C       -1.97699408       1.28319937       9.85895612       46       0.40697036      -0.18668084       0.33790678       1.72742307       0.51334041      -1.56748605
C        3.19008768       2.61285380       0.97606089       47       0.25747338       0.90120841      -0.18332931       1.07155609       1.22871244       1.82994986
O       -0.85758716       2.66103185       4.11713050       48       0.61684352      -0.37118767       1.25663920      -0.17584941       0.40347144       1.06925225
O        1.08909389      -0.23997551       6.12862843       49      -0.39618465      -0.37804537      -0.11483539       0.12260064      -0.37597540      -0.82796979
O       -1.16050471      -0.72093724       5.97406335       50      -0.34983963      -1.05740311      -0.27246583      -0.47367007      -0.41498154      -0.96765482
O        1.00795477       1.19208938       4.24044436       51      -0.03056998       0.15482636      -1.24559183      -1.03327370      -0.52625024       0.63129032
O       -3.10184423       4.20162631       0.97719072       52      -0.29226525       0.28802338      -0.94690410      -0.31202507       1.32850480      -0.04797925
O        4.30825707       0.33413974       9.75623651       53       0.02704173      -1.15722824      -0.33727281      -0.25941297       0.04011440       0.50477290
O       -4.24389636       0.74756658       9.49746235       54       0.41595558      -0.82784350       0.02625847       0.13963717       0.06729691      -0.42571533
O        5.02961354       1.21054940       1.07684137       55       0.87862881       0.61974467       1.29120803      -0.01923111      -0.82934988       0.05839913
