56
Lattice="10.7619164 0.0 0.0 -9.665296305262016 4.732958053065482 0.0 -0.5483100463354086 -2.3664790220718444 10.484177494289693" Properties=species:S:1:pos:R:3:spacegroup_kinds:I:1:momenta:R:3:forces:R:3 spacegroup="P 1" unit_cell=conventional occupancy="_JSON {\"0\": {\"H\": 1}, \"1\": {\"H\": 1}, \"2\": {\"H\": 1}, \"3\": {\"H\": 1}, \"4\": {\"H\": 1}, \"5\": {\"H\": 1}, \"6\": {\"H\": 1}, \"7\": {\"H\": 1}, \"8\": {\"H\": 1}, \"9\": {\"H\": 1}, \"10\": {\"H\": 1}, \"11\": {\"H\": 1}, \"12\": {\"H\": 1}, \"13\": {\"H\": 1}, \"14\": {\"H\": 1}, \"15\": {\"H\": 1}, \"16\": {\"H\": 1}, \"17\": {\"H\": 1}, \"18\": {\"H\": 1}, \"19\": {\"H\": 1}, \"20\": {\"H\": 1}, \"21\": {\"H\": 1}, \"22\": {\"H\": 1}, \"23\": {\"H\": 1}, \"24\": {\"H\": 1}, \"25\": {\"H\": 1}, \"26\": {\"H\": 1}, \"27\": {\"H\": 1}, \"28\": {\"H\": 1}, \"29\": {\"H\": 1}, \"30\": {\"H\": 1}, \"31\": {\"H\": 1}, \"32\": {\"C\": 1}, \"33\": {\"C\": 1}, \"34\": {\"C\": 1}, \"35\": {\"C\": 1}, \"36\": {\"C\": 1}, \"37\": {\"C\": 1}, \"38\": {\"C\": 1}, \"39\": {\"C\": 1}, \"40\": {\"C\": 1}, \"41\": {\"C\": 1}, \"42\": {\"C\": 1}, \"43\": {\"C\": 1}, \"44\": {\"C\": 1}, \"45\": {\"C\": 1}, \"46\": {\"C\": 1}, \"47\": {\"C\": 1}, \"48\": {\"O\": 1}, \"49\": {\"O\": 1}, \"50\": {\"O\": 1}, \"51\": {\"O\": 1}, \"52\": {\"O\": 1}, \"53\": {\"O\": 1}, \"54\": {\"O\": 1}, \"55\": {\"O\": 1}}" energy=-315.20623779296875 free_energy=-315.20623779296875 stress="0.0015259993961080909 -0.0007349614752456546 -5.958021915830614e-07 -0.0007349614752456546 -0.001476799137890339 6.772254579345827e-08 -5.958021915830614e-07 6.772254579345827e-08 0.0016979743959382176" pbc="T T T"
H       -0.01248427       2.27696696       1.83153339        0       0.26354636       0.05758816       0.17128558       0.07122784       0.02707815       0.05251671
H        0.46428407      -0.32702137       8.65264411        1       0.35723632       0.30052336      -0.15421514      -0.05205600       0.05564486      -0.05251566
H        7.11696904      -0.62167877       5.76820574        2       0.13651140      -0.03657588      -0.02448058       0.06071797       0.02959698      -0.06332395
H        3.54843712       0.20514534       4.71597175        3       0.04495575       0.01373704       0.24194406      -0.04159897       0.05318686       0.06330289
H        5.94175252       0.08951207       3.41055536        4       0.10004105       0.00919574       0.06893732      -0.07122712      -0.02707671      -0.05251808
H        4.91667413       0.32702137       7.07362213        5       0.03762731       0.23702154      -0.03633186       0.05205666      -0.05563830       0.05251937
H       -1.73601084       0.62167878       9.95806050        6       0.04090260      -0.15000140      -0.41043770      -0.06071933      -0.02958607       0.06332491
H        2.38083113       2.16133369       0.52611700        7       0.07639930       0.13373956      -0.11953039       0.04159800      -0.05318645      -0.06330164
H       -1.38564785       1.18011340       2.11584331        8       0.34764813      -0.24942510       0.01968671       0.00912150       0.09641398       0.00989621
H       -8.45014457       2.81694541       8.36833418        9      -0.04487542       0.24826795       0.27191556       0.03391321       0.09078161      -0.00993996
H       -2.58250803       2.70418269       6.85836100       10       0.00836639       0.05472545      -0.13232917       0.03144392       0.09145412       0.01228192
H       -6.70499477       3.65935988       3.62581649       11      -0.35280026      -0.06406840       0.05024236       0.01202225       0.09588322      -0.01239137
H       -3.44700030       1.18636563       3.12624543       12       0.17759995       0.19181929      -0.04741865      -0.00912165      -0.09641434      -0.00989500
H       -6.59610993       1.91601265       7.35793206       13      -0.06659844      -0.18039638      -0.21144164      -0.03391611      -0.09078144       0.00994112
H       -1.70183007       2.02877537       8.86790524       14      -0.29590695       0.31510437      -0.07166042      -0.03144048      -0.09144838      -0.01229333
H       -7.79294969       3.44007720       1.61627226       15      -0.10166361      -0.21365327       0.15571300      -0.01202438      -0.09588441       0.01238987
H       -0.77544238       0.72057867       4.36236141       16      -0.29135246      -0.04383699      -0.13778795      -0.05580213      -0.06497601       0.06553172
H        1.56164860       2.67260202       6.12181608       17       0.04513471      -0.09416448      -0.19034861       0.02151169      -0.08285706      -0.06550486
H       -0.46393564       1.89516633       6.16016720       18      -0.02388752       0.06229365       0.02104621       0.04679047      -0.08891340       0.03981832
H        0.70181139      -0.86845994       4.32401029       19       0.02574107      -0.11427781      -0.05287528      -0.08095865      -0.05913989      -0.03975110
H        6.70471062       1.64590036       0.87972733       20      -0.14286290      -0.07079985      -0.14118650       0.05580526       0.06498102      -0.06553398
H       -5.84598670       2.06035604       9.60445016       21      -0.29753233       0.02254640      -0.04431235      -0.02151345       0.08285291       0.06550334
H        5.84489385      -1.89516633       9.56609904       22      -0.28312851       0.06560536      -0.15494221      -0.04679298       0.08891539      -0.03981575
H       -5.53445954       3.23493897       0.91807845       23      -0.02208037       0.11416853       0.04301970       0.08095691       0.05914038       0.03974720
H        0.25131050       0.51347389       1.94957474       24       0.15959789      -0.21361364       0.07505588      -0.00851085      -0.01871572      -0.03717782
H       -0.54820374      -1.79480395       8.53460275       25      -0.12868866      -0.15316038      -0.08588331      -0.00032988      -0.02044782       0.03709384
H       -2.80766320       2.46899490       5.11315433       26      -0.07305533       0.00146869      -0.17781296      -0.04083861      -0.01125230       0.00405164
H       -6.60619587       3.34910738       5.37102316       27       0.12888264       0.07074453      -0.23064715       0.03167393      -0.02802532      -0.00411315
H       -5.08395866       1.85300514       3.29251401       28       0.22099581       0.30740365       0.21601993       0.00851518       0.01871340       0.03717725
H       -4.83275446       1.79480396       7.19166349       29      -0.04673026      -0.18471461       0.19482948       0.00034667       0.02045767      -0.03709861
H       -0.92836486       4.63044218       0.12893441       30      -0.09883902       0.19431951       0.04569436       0.04083301       0.01124337      -0.00406412
H        2.32185777       1.38385068      10.35524308       31       0.15211596       0.04921952       0.12080102      -0.03167621       0.02802734       0.00411066
C       -0.12835063       1.44534837       3.84841655       32      -0.28778073       0.91754073       0.18270710      -0.01445528       0.09213132      -0.08206749
C        0.20260826      -1.12485611       6.63576095       33       0.00096406       0.97078231      -0.67128192       0.05361571       0.07627116       0.08205730
C       -0.77226604       2.84130358       5.69336968       34      -0.96473690       0.45234422      -0.54337998      -0.06051290       0.10292947       0.03487853
C        1.39483372      -0.15433229       4.79080781       35       0.83737779      -0.34833687      -0.35976593       0.09947363       0.06571063      -0.03489257
C        6.05761888       0.92113066       1.39367220       36       0.73780001       0.71679960       1.01054651       0.01444698      -0.09213768       0.08206812
C       -5.58356646       1.12485611       9.09050530       37       0.36600935      -0.57579551       1.35161317      -0.05360166      -0.07626200      -0.08206040
C       -3.51207206       1.89165448      10.03289656       38      -0.27702103       0.36712178       0.74445208       0.06052613      -0.10293391      -0.03488992
C        4.53443453       2.52081132       0.45128094       39      -0.47025582       0.22782501       0.51146167      -0.09947181      -0.06572011       0.03490306
C       -0.32593927       1.35886302       2.34265801       40      -0.11966996      -0.73251108       0.28611321      -0.02487592      -0.04884130       0.03836782
C        0.34202778      -1.28942579       8.14151949       41       0.57030904      -0.50578053       0.01064034       0.00090622      -0.05509114      -0.03821177
C       -2.26824862       3.05565688       5.86632716       42      -0.48098077       0.96238649       0.55365818       0.02524526      -0.06073754       0.01393116
C        2.83264719      -0.61974062       4.61785033       43      -0.04860277      -0.55844948       0.33742963      -0.04932025      -0.04330721      -0.01374401
C        6.25520752       1.00761601       2.89943074       44      -0.70747446      -0.11378709      -0.42767829       0.02487087       0.04884291      -0.03836705
C       -5.72298598       1.28942580       7.58474676       45       0.19434055       0.24831833       0.14297097      -0.00092384       0.05507532       0.03821281
C       -2.01608948       1.67730118       9.85993908       46       0.09740524      -0.72425149      -0.69205550      -0.02525494       0.06073046      -0.01389907
C        3.09662106       2.98621965       0.62423841       47      -0.12331172      -0.02208015       0.38636924       0.04932707       0.04330489       0.01374406
O       -0.42625656       2.75924355       4.28180099       48       1.20625674       0.48604619      -0.44497158       0.00567016      -0.06416529       0.01081736
O        1.04798334      -0.07585512       6.20237650       49       0.42305791      -1.01659881      -0.20166176      -0.03317352      -0.05508618      -0.01086379
O       -1.17294689      -0.80803189       6.28015861       50      -0.36133290       0.99731317      -0.30860065      -0.00324861      -0.06212839      -0.01994156
O        1.24638404       1.12493657       4.20401888       51      -0.92624698      -0.21254257      -0.34164539      -0.02462116      -0.05716568       0.01989366
O       -3.30977150       4.34019353       0.96028775       52       0.26500009      -0.83301049      -0.49473951      -0.00567110       0.06416610      -0.01082027
O        4.33297486       0.07585512       9.52388974       53      -0.48283211      -0.49689578       1.25894465       0.03316894       0.05508606       0.01086761
O       -4.20801131       0.80803190       9.44610763       54       0.43498781      -0.06064940      -0.51538975       0.00324724       0.06213105       0.01994592
O        4.68288421       1.24154246       1.03806987       55       0.06343698      -0.82659266      -1.04828579       0.02462519       0.05716981      -0.01989768
56
Lattice="10.7619164 0.0 0.0 -9.665296305262016 4.732958053065482 0.0 -0.5483100463354086 -2.3664790220718444 10.484177494289693" Properties=species:S:1:pos:R:3:spacegroup_kinds:I:1:momenta:R:3:forces:R:3 spacegroup="P 1" unit_cell=conventional occupancy="_JSON {\"0\": {\"H\": 1}, \"1\": {\"H\": 1}, \"2\": {\"H\": 1}, \"3\": {\"H\": 1}, \"4\": {\"H\": 1}, \"5\": {\"H\": 1}, \"6\": {\"H\": 1}, \"7\": {\"H\": 1}, \"8\": {\"H\": 1}, \"9\": {\"H\": 1}, \"10\": {\"H\": 1}, \"11\": {\"H\": 1}, \"12\": {\"H\": 1}, \"13\": {\"H\": 1}, \"14\": {\"H\": 1}, \"15\": {\"H\": 1}, \"16\": {\"H\": 1}, \"17\": {\"H\": 1}, \"18\": {\"H\": 1}, \"19\": {\"H\": 1}, \"20\": {\"H\": 1}, \"21\": {\"H\": 1}, \"22\": {\"H\": 1}, \"23\": {\"H\": 1}, \"24\": {\"H\": 1}, \"25\": {\"H\": 1}, \"26\": {\"H\": 1}, \"27\": {\"H\": 1}, \"28\": {\"H\": 1}, \"29\": {\"H\": 1}, \"30\": {\"H\": 1}, \"31\": {\"H\": 1}, \"32\": {\"C\": 1}, \"33\": {\"C\": 1}, \"34\": {\"C\": 1}, \"35\": {\"C\": 1}, \"36\": {\"C\": 1}, \"37\": {\"C\": 1}, \"38\": {\"C\": 1}, \"39\": {\"C\": 1}, \"40\": {\"C\": 1}, \"41\": {\"C\": 1}, \"42\": {\"C\": 1}, \"43\": {\"C\": 1}, \"44\": {\"C\": 1}, \"45\": {\"C\": 1}, \"46\": {\"C\": 1}, \"47\": {\"C\": 1}, \"48\": {\"O\": 1}, \"49\": {\"O\": 1}, \"50\": {\"O\": 1}, \"51\": {\"O\": 1}, \"52\": {\"O\": 1}, \"53\": {\"O\": 1}, \"54\": {\"O\": 1}, \"55\": {\"O\": 1}}" energy=-314.163330078125 free_energy=-314.163330078125 stress="0.0017964767757803202 -0.006295050494372845 0.0040649538859725 -0.006295050494372845 0.0028975321911275387 0.006800168659538031 0.0040649538859725 0.006800168659538031 -0.004473671317100525" pbc="T T T"
H        0.12223875       2.21335579       1.84744823        0      -0.06388226      -0.04108008      -0.23331091      -0.34890747      -0.46718001       0.26391724
H        0.31702074      -0.21474883       8.50409130        1      -0.41596667       0.28241807       0.13417996       0.19316769      -0.82259113      -0.04442035
H        7.16689574      -0.52337017       5.79422137        2      -0.01099346       0.09115196       0.18553088      -0.25331408       0.53084272      -0.08150279
H        3.56769343       0.19128014       4.81695804        3       0.00635045       0.03106401      -0.05661326      -0.45246941      -0.59983253       0.03513610
H        5.89857391       0.12906185       3.45590352        4      -0.13662971       0.06346630       0.07412529      -0.11012649      -0.04154336      -0.10463428
H        5.01440549       0.32414381       7.14335939        5       0.11996952      -0.01313417       0.16304589      -0.17231518      -0.44180286      -0.12289600
H       -1.69404182       0.62953431       9.70230151        6      -0.06773569       0.00953597      -0.07983935      -0.29939792      -0.31745750       0.05525919
H        2.37945911       2.25462947       0.31380998        7      -0.10899704       0.12801561      -0.23887820      -0.36571097      -0.41984749      -0.02494904
H       -1.28062220       1.09681359       2.00394185        8       0.10394112       0.17626297      -0.14567622      -0.56132323      -0.12197538      -0.18949649
H       -8.36548928       3.00985761       8.44664930        9       0.01874415       0.07750804      -0.14054394       0.39231956      -0.31946674      -0.01170141
H       -2.54664929       2.78893571       6.82205312       10       0.03048614       0.25775620      -0.04488813      -0.41237295      -0.20837846       1.19028497
H       -6.74143409       3.80633214       3.57290637       11       0.32050263       0.15943887       0.02898780       0.31104082       0.03237018       0.37734854
H       -3.41360545       1.09458054       3.05616297       12       0.34318367      -0.23802478       0.07743260      -0.50854141       0.08234723       0.33155945
H       -6.59466934       1.88031610       7.31880479       13       0.01536739       0.03548276       0.08656146      -0.08189720      -0.12137370       0.20796385
H       -1.92963184       2.16013652       8.81427830       14       0.12531101      -0.02323636      -0.06973052       0.40313733      -0.12264631      -0.32056496
H       -7.86690874       3.29972358       1.71696127       15      -0.08477305      -0.03159824       0.12293887      -0.01434036      -0.41004309      -0.77136517
H       -0.90235496       0.77646747       4.33988640       16      -0.08686004      -0.05814809       0.28342556       0.40912718       0.11714939       0.19912328
H        1.57326849       2.69585852       6.02312946       17       0.00715142      -0.12380908      -0.16254839      -0.29899228      -0.23123007       0.25480586
H       -0.61632285       1.91476305       6.12879314       18      -0.08876019       0.01924316      -0.05101224       0.36619592      -0.32495490       0.18464854
H        0.76835885      -0.91704691       4.28843426       19      -0.15605150       0.01894746       0.06988640      -0.03237614       0.22900435       0.08527814
H        6.70609321       1.62092020       0.91686458       20       0.01929218      -0.19191477       0.26163574       0.76997536       0.63578236      -0.47934926
H       -5.82009079       2.01052709       9.75507011       21       0.30326581       0.03656613       0.14022325      -0.00922814      -0.03740999      -0.50983781
H        5.81093413      -1.87039275       9.61285224       22       0.20657582       0.20659807      -0.02039163       0.37427837      -0.52968508       0.33497739
H       -5.59543451       3.24736134       1.04015510       23      -0.04224136      -0.11354993       0.21265890       0.13948873      -0.29076806      -0.10893892
H        0.42784594       0.48710592       2.10176750       24       0.30049769      -0.13611001      -0.00468396      -0.59484440       0.09816343      -0.19185251
H       -0.53518869      -1.77813122       8.52127413       25       0.00655559       0.08690827       0.10595493       0.65831959      -0.06782483      -0.13440596
H       -2.96285663       2.59157641       5.13270578       26      -0.25300678       0.03340905       0.06572293       0.52107203       0.35914728       0.31286624
H       -6.55716737       3.24215835       5.23786851       27      -0.16752537      -0.02805303      -0.10766360       0.03742075      -0.88643515       0.79596192
H       -5.03685278       1.93128222       3.36334308       28      -0.15021144       0.12582531      -0.10191886       0.62859148      -0.83863372      -0.54655415
H       -4.85344615       1.77016478       7.27072608       29      -0.06649205       0.16884060       0.01181285       1.25072980       0.88673568      -0.39224750
H       -0.86175592       4.56432677       0.03964644       30       0.17846359      -0.19144336      -0.07943220      -0.39176160      -0.36752382      -0.55813462
H        2.38301371       1.54051131      10.51636409       31      -0.19060836       0.01911275       0.25222968       0.14691004      -0.16933203       0.11265873
C       -0.17581895       1.46226534       3.84974165       32      -0.18515645      -0.57459533      -0.22058222       0.27882972      -0.44003659       0.08530459
C        0.22192599      -1.12504879       6.58997347       33      -0.07512345      -0.46550109       0.08488237      -0.55275488      -0.80494744       0.23250467
C       -0.84336859       2.87265025       5.66245298       34       0.04319835       0.29158552      -0.23378180       1.13017988       0.50399083      -0.24388514
C        1.43229075      -0.18392811       4.79404744       35      -0.39846579      -0.16641786      -0.07506708      -1.39263391       0.15176812      -0.49470904
C        6.06713487       0.93900034       1.43224267       36      -0.39497121      -0.32073241      -0.80955212      -1.35844040      -1.50483584      -0.67591494
C       -5.58329451       1.10380716       9.15771830       37      -0.36193235      -0.01752129       0.07000787      -0.01276069       0.62094945      -0.17375609
C       -3.52181740       1.89477509      10.09402551       38       0.16177583      -0.52863234       0.28467003       0.13258445       0.16548531      -2.07574987
C        4.51640584       2.52102927       0.51005713       39       0.36138349      -0.43527613       0.58505073       0.14678669       0.12095644       0.07939279
C       -0.28405292       1.30051714       2.35611375       40       0.19195166      -0.55821607       0.03644868       1.44869924       0.72397500      -0.52214003
C        0.37449210      -1.27541848       8.11748206       41       0.14753483       0.49373576      -0.46888097      -1.73078191       1.54831409      -0.36516798
C       -2.30636825       3.14844780       5.85186587       42      -0.25949178       1.26103856      -0.54787140      -0.30482787      -0.37169603      -1.63763285
C        2.84200269      -0.65064887       4.64737901       43       0.56034528      -0.10141635      -0.32885511       0.85266066       1.99939609      -1.91113758
C        6.24443653       1.02088160       2.92126916       44       0.40080596      -0.06552317       0.31202152       0.30223894       0.54349977       0.34550539
C       -5.72072980       1.29321541       7.63361805       45      -0.11247034      -0.13664521       1.05760893      -1.14459348      -0.53769833       0.96596205
C       -2.05012739       1.65516313       9.77267024       46      -0.47453594       0.69520835      -0.54057357       0.62453490       1.48065042       1.00712657
C        3.08351631       3.00246315       0.64822750       47      -0.01605077       0.11556206       0.01380970       0.20967402       0.51371211       0.80870646
O       -0.35411231       2.78763684       4.26978769       48       0.22350742       0.25056293       0.25663361      -1.10039794       0.01685408       0.20638129
O        1.06167984      -0.11984225       6.16496940       49      -0.16821850      -0.55392432      -0.45958751       0.11151911       0.85498482       0.49101335
O       -1.21357942      -0.78977938       6.25156088       50      -0.33543367      -0.44277480      -0.25066846       0.73390520      -0.39541698       0.41342074
O        1.20697421       1.13024275       4.19342497       51       0.17004628       0.12777093       0.14454295       0.59316176      -1.04898381       0.70126706
O       -3.31489246       4.29054000       0.93958224       52      -0.41183563      -0.17658521       0.40053904      -0.10514039       0.93135500       2.17608857
O        4.33821577       0.06296654       9.62059752       53       0.35992287       0.45633105       0.21462753       0.43338257       0.52332348      -1.13898110
O       -4.17202259       0.83010248       9.41381798       54       0.02043429       0.24051403      -0.02777872      -0.78840125      -0.43915749       0.27765545
O        4.70668948       1.20000077       0.96656717       55       0.53785626      -0.22599739      -0.23686570      -0.20127930       0.02995211       1.29980755
56
Lattice="10.7619164 0.0 0.0 -9.665296305262016 4.732958053065482 0.0 -0.5483100463354086 -2.3664790220718444 10.484177494289693" Properties=species:S:1:pos:R:3:spacegroup_kinds:I:1:momenta:R:3:forces:R:3 spacegroup="P 1" unit_cell=conventional occupancy="_JSON {\"0\": {\"H\": 1}, \"1\": {\"H\": 1}, \"2\": {\"H\": 1}, \"3\": {\"H\": 1}, \"4\": {\"H\": 1}, \"5\": {\"H\": 1}, \"6\": {\"H\": 1}, \"7\": {\"H\": 1}, \"8\": {\"H\": 1}, \"9\": {\"H\": 1}, \"10\": {\"H\": 1}, \"11\": {\"H\": 1}, \"12\": {\"H\": 1}, \"13\": {\"H\": 1}, \"14\": {\"H\": 1}, \"15\": {\"H\": 1}, \"16\": {\"H\": 1}, \"17\": {\"H\": 1}, \"18\": {\"H\": 1}, \"19\": {\"H\": 1}, \"20\": {\"H\": 1}, \"21\": {\"H\": 1}, \"22\": {\"H\": 1}, \"23\": {\"H\": 1}, \"24\": {\"H\": 1}, \"25\": {\"H\": 1}, \"26\": {\"H\": 1}, \"27\": {\"H\": 1}, \"28\": {\"H\": 1}, \"29\": {\"H\": 1}, \"30\": {\"H\": 1}, \"31\": {\"H\": 1}, \"32\": {\"C\": 1}, \"33\": {\"C\": 1}, \"34\": {\"C\": 1}, \"35\": {\"C\": 1}, \"36\": {\"C\": 1}, \"37\": {\"C\": 1}, \"38\": {\"C\": 1}, \"39\": {\"C\": 1}, \"40\": {\"C\": 1}, \"41\": {\"C\": 1}, \"42\": {\"C\": 1}, \"43\": {\"C\": 1}, \"44\": {\"C\": 1}, \"45\": {\"C\": 1}, \"46\": {\"C\": 1}, \"47\": {\"C\": 1}, \"48\": {\"O\": 1}, \"49\": {\"O\": 1}, \"50\": {\"O\": 1}, \"51\": {\"O\": 1}, \"52\": {\"O\": 1}, \"53\": {\"O\": 1}, \"54\": {\"O\": 1}, \"55\": {\"O\": 1}}" energy=-313.85382080078125 free_energy=-313.85382080078125 stress="0.013761411421000957 -0.004879390355199575 -0.005674312356859446 -0.004879390355199575 0.006163867190480232 0.0054760645143687725 -0.005674312356859446 0.0054760645143687725 -0.0018128190422430634" pbc="T T T"
H        0.15152051       2.21865818       1.86996598        0       0.18670856      -0.17536406       0.06887275      -0.25463063      -0.83075505       0.05804815
H        0.10920511      -0.19334258       8.62244499        1      -0.00897897       0.26460691      -0.03107077       0.20135939      -1.45994377      -1.01799417
H        7.15516441      -0.39883635       5.76710610        2       0.22383268       0.15937043      -0.34067690       0.18644597       0.19728228      -0.26340488
H        3.55287379       0.14212049       5.10648282        3      -0.16824462      -0.25377460       0.22539374      -0.53552759      -0.32389691      -0.69895887
H        5.71904798       0.28007959       3.48878614        4      -0.14175088       0.06957653       0.07981250      -0.42628986      -0.45673275       0.12704496
H        5.07217444       0.33732691       7.23278701        5      -0.02221060       0.07819950       0.03358479       0.14585009      -0.33882883      -0.34743473
H       -1.86337465       0.61454895       9.70908643        6       0.00209988      -0.06951359       0.02682891       0.35397255       0.27212721       0.03441964
H        2.40409170       2.23500127       0.27412499        7      -0.05904449      -0.08227791      -0.03197366       0.20295471       0.43274045      -0.32657123
H       -1.27779543       1.10993539       2.00836783        8      -0.09536106      -0.13044320       0.02708182      -0.83863872       0.04003398      -0.43664563
H       -8.33962601       3.21420938       8.35225630        9       0.17273599       0.29406292      -0.08361805       0.23368058       0.22765565      -0.09217963
H       -2.54133527       3.01261337       6.85842846       10       0.10491051       0.07367803       0.12018101      -0.11240925      -0.33224368       0.81576526
H       -6.39093365       3.84895163       3.60576961       11       0.14443654       0.00657634      -0.00789872      -0.26307684       0.31059915      -0.29986575
H       -3.37778197       0.94136168       3.24468001       12       0.01522085      -0.07500934       0.19342035      -1.33400345      -0.10755599      -0.76893151
H       -6.68609528       1.78694172       7.51153390       13      -0.08667885      -0.27258677      -0.01170153      -0.20096044      -0.13164622      -0.15521736
H       -1.76453227       2.05976720       8.70170587       14       0.02189859      -0.10309585       0.09738843      -0.31269553       0.19350259       0.31043988
H       -7.95446005       3.02340534       1.79564968       15      -0.04973584      -0.11226862       0.02076950       0.41189545       0.38057750      -1.18562269
H       -0.80018664       0.77039123       4.49092962       16       0.00831347      -0.06072609      -0.00660580       0.00096964       0.17438745      -0.99411613
H        1.44500771       2.50713099       6.17382286       17       0.01225033      -0.28997482      -0.01209828       0.24866511       1.14402521       0.13491079
H       -0.56090751       1.92546784       6.04306255       18       0.00912420       0.02953070      -0.02228973      -0.35387355      -0.16754258       0.13082585
H        0.67939897      -0.89355049       4.27079631       19       0.07644909      -0.05095171      -0.04691381       0.30057618      -0.10529587      -0.07734977
H        6.74714455       1.49845910       0.85340930       20      -0.11245930      -0.08927544      -0.22056971       0.51641065       1.18712449      -0.49471211
H       -5.80988208       2.10952441       9.71365881       21      -0.20491602       0.06817275      -0.10894755       0.02467101      -0.34779078      -0.22418301
H        5.87596101      -1.83571096       9.70363738       22      -0.16165002       0.07076692       0.03590504      -0.15178859      -0.88951612      -0.00086566
H       -5.50015873       3.11440199       1.13784157       23       0.11933141       0.03126398      -0.00442131      -0.11865045       0.35620755      -0.32354972
H        0.36855193       0.33657757       1.99417355       24      -0.04607090      -0.23447375      -0.15432097      -1.04204106       1.71019387       0.43702102
H       -0.32413883      -2.00709534       8.53026259       25       0.20338999      -0.17844333      -0.18322137       0.05246268       0.67888927      -0.27905262
H       -3.08714240       2.74677624       5.19721876       26      -0.01915503       0.07455418      -0.09249923       0.58998275       0.03474110       0.12558132
H       -6.69673473       3.25872592       5.21696373       27      -0.09696508      -0.06688984      -0.04755562       0.17544088      -1.07493043       0.50442296
H       -4.83143348       2.04721357       3.16449864       28       0.33766946       0.12941330       0.00705020       0.39478043      -1.34767699      -0.01897427
H       -4.93754024       1.99042825       7.37634385       29       0.05869110       0.23203824       0.01089283      -0.29873547      -0.47476315      -0.05642529
H       -0.81005394       4.51876355       0.00822827       30      -0.20155786       0.23295191      -0.03457224      -0.26691616      -0.02006552      -0.48482335
H        2.48120433       1.62674249      10.66760471       31       0.30393419      -0.01816090       0.05312247      -0.25146830      -0.60052001       0.38425097
C       -0.17497679       1.41202889       3.81608589       32       0.11041229      -0.26316038      -0.10980156       0.95673048       0.41550228       1.33580089
C        0.16861396      -1.18805868       6.60335739       33      -0.76776879       0.02200107       0.67403846      -0.22194289       0.09042225      -0.69299817
C       -0.81165544       2.89924227       5.59186426       34      -0.05282404       0.32732964      -0.63230697      -1.19237471      -0.34071997       0.60170257
C        1.38527140      -0.18167026       4.74198786       35       0.10269965       0.21879225      -0.68694710       0.81694502      -0.55123609      -0.59415251
C        6.06620575       0.86818201       1.37965231       36       0.53230888      -0.54626120       0.08532722      -0.00823157      -0.53997290       1.85034275
C       -5.59710016       1.15461054       9.17270547       37       0.05871131       1.06856345       0.55336421       0.70454901       0.84735119       1.79724061
C       -3.48648165       1.86752583      10.06803996       38       0.30032555       0.37939403      -0.58623095      -0.95997751       1.52576447      -0.53065735