56
Lattice="10.7619164 0.0 0.0 -9.665296305262016 4.732958053065482 0.0 -0.5483100463354086 -2.3664790220718444 10.484177494289693" Properties=species:S:1:pos:R:3:spacegroup_kinds:I:1:forces:R:3 spacegroup="P 1" unit_cell=conventional occupancy="_JSON {\"0\": {\"H\": 1}, \"1\": {\"H\": 1}, \"2\": {\"H\": 1}, \"3\": {\"H\": 1}, \"4\": {\"H\": 1}, \"5\": {\"H\": 1}, \"6\": {\"H\": 1}, \"7\": {\"H\": 1}, \"8\": {\"H\": 1}, \"9\": {\"H\": 1}, \"10\": {\"H\": 1}, \"11\": {\"H\": 1}, \"12\": {\"H\": 1}, \"13\": {\"H\": 1}, \"14\": {\"H\": 1}, \"15\": {\"H\": 1}, \"16\": {\"H\": 1}, \"17\": {\"H\": 1}, \"18\": {\"H\": 1}, \"19\": {\"H\": 1}, \"20\": {\"H\": 1}, \"21\": {\"H\": 1}, \"22\": {\"H\": 1}, \"23\": {\"H\": 1}, \"24\": {\"H\": 1}, \"25\": {\"H\": 1}, \"26\": {\"H\": 1}, \"27\": {\"H\": 1}, \"28\": {\"H\": 1}, \"29\": {\"H\": 1}, \"30\": {\"H\": 1}, \"31\": {\"H\": 1}, \"32\": {\"C\": 1}, \"33\": {\"C\": 1}, \"34\": {\"C\": 1}, \"35\": {\"C\": 1}, \"36\": {\"C\": 1}, \"37\": {\"C\": 1}, \"38\": {\"C\": 1}, \"39\": {\"C\": 1}, \"40\": {\"C\": 1}, \"41\": {\"C\": 1}, \"42\": {\"C\": 1}, \"43\": {\"C\": 1}, \"44\": {\"C\": 1}, \"45\": {\"C\": 1}, \"46\": {\"C\": 1}, \"47\": {\"C\": 1}, \"48\": {\"O\": 1}, \"49\": {\"O\": 1}, \"50\": {\"O\": 1}, \"51\": {\"O\": 1}, \"52\": {\"O\": 1}, \"53\": {\"O\": 1}, \"54\": {\"O\": 1}, \"55\": {\"O\": 1}}" energy=-315.20623779296875 free_energy=-315.20623779296875 stress="0.0015259993961080909 -0.0007349614752456546 -5.958021915830614e-07 -0.0007349614752456546 -0.001476799137890339 6.772254579345827e-08 -5.958021915830614e-07 6.772254579345827e-08 0.0016979743959382176" pbc="T T T"
H       -0.01248427       2.27696696       1.83153339        0       0.07122784       0.02707815       0.05251671
H        0.46428407      -0.32702137       8.65264411        1      -0.05205600       0.05564486      -0.05251566
H        7.11696904      -0.62167877       5.76820574        2       0.06071797       0.02959698      -0.06332395
H        3.54843712       0.20514534       4.71597175        3      -0.04159897       0.05318686       0.06330289
H        5.94175252       0.08951207       3.41055536        4      -0.07122712      -0.02707671      -0.05251808
H        4.91667413       0.32702137       7.07362213        5       0.05205666      -0.05563830       0.05251937
H       -1.73601084       0.62167878       9.95806050        6      -0.06071933      -0.02958607       0.06332491
H        2.38083113       2.16133369       0.52611700        7       0.04159800      -0.05318645      -0.06330164
H       -1.38564785       1.18011340       2.11584331        8       0.00912150       0.09641398       0.00989621
H       -8.45014457       2.81694541       8.36833418        9       0.03391321       0.09078161      -0.00993996
H       -2.58250803       2.70418269       6.85836100       10       0.03144392       0.09145412       0.01228192
H       -6.70499477       3.65935988       3.62581649       11       0.01202225       0.09588322      -0.01239137
H       -3.44700030       1.18636563       3.12624543       12      -0.00912165      -0.09641434      -0.00989500
H       -6.59610993       1.91601265       7.35793206       13      -0.03391611      -0.09078144       0.00994112
H       -1.70183007       2.02877537       8.86790524       14      -0.03144048      -0.09144838      -0.01229333
H       -7.79294969       3.44007720       1.61627226       15      -0.01202438      -0.09588441       0.01238987
H       -0.77544238       0.72057867       4.36236141       16      -0.05580213      -0.06497601       0.06553172
H        1.56164860       2.67260202       6.12181608       17       0.02151169      -0.08285706      -0.06550486
H       -0.46393564       1.89516633       6.16016720       18       0.04679047      -0.08891340       0.03981832
H        0.70181139      -0.86845994       4.32401029       19      -0.08095865      -0.05913989      -0.03975110
H        6.70471062       1.64590036       0.87972733       20       0.05580526       0.06498102      -0.06553398
H       -5.84598670       2.06035604       9.60445016       21      -0.02151345       0.08285291       0.06550334
H        5.84489385      -1.89516633       9.56609904       22      -0.04679298       0.08891539      -0.03981575
H       -5.53445954       3.23493897       0.91807845       23       0.08095691       0.05914038       0.03974720
H        0.25131050       0.51347389       1.94957474       24      -0.00851085      -0.01871572      -0.03717782
H       -0.54820374      -1.79480395       8.53460275       25      -0.00032988      -0.02044782       0.03709384
H       -2.80766320       2.46899490       5.11315433       26      -0.04083861      -0.01125230       0.00405164
H       -6.60619587       3.34910738       5.37102316       27       0.03167393      -0.02802532      -0.00411315
H       -5.08395866       1.85300514       3.29251401       28       0.00851518       0.01871340       0.03717725
H       -4.83275446       1.79480396       7.19166349       29       0.00034667       0.02045767      -0.03709861
H       -0.92836486       4.63044218       0.12893441       30       0.04083301       0.01124337      -0.00406412
H        2.32185777       1.38385068      10.35524308       31      -0.03167621       0.02802734       0.00411066
C       -0.12835063       1.44534837       3.84841655       32      -0.01445528       0.09213132      -0.08206749
C        0.20260826      -1.12485611       6.63576095       33       0.05361571       0.07627116       0.08205730
C       -0.77226604       2.84130358       5.69336968       34      -0.06051290       0.10292947       0.03487853
C        1.39483372      -0.15433229       4.79080781       35       0.09947363       0.06571063      -0.03489257
C        6.05761888       0.92113066       1.39367220       36       0.01444698      -0.09213768       0.08206812
C       -5.58356646       1.12485611       9.09050530       37      -0.05360166      -0.07626200      -0.08206040
C       -3.51207206       1.89165448      10.03289656       38       0.06052613      -0.10293391      -0.03488992
C        4.53443453       2.52081132       0.45128094       39      -0.09947181      -0.06572011       0.03490306
C       -0.32593927       1.35886302       2.34265801       40      -0.02487592      -0.04884130       0.03836782
C        0.34202778      -1.28942579       8.14151949       41       0.00090622      -0.05509114      -0.03821177
C       -2.26824862       3.05565688       5.86632716       42       0.02524526      -0.06073754       0.01393116
C        2.83264719      -0.61974062       4.61785033       43      -0.04932025      -0.04330721      -0.01374401
C        6.25520752       1.00761601       2.89943074       44       0.02487087       0.04884291      -0.03836705
C       -5.72298598       1.28942580       7.58474676       45      -0.00092384       0.05507532       0.03821281
C       -2.01608948       1.67730118       9.85993908       46      -0.02525494       0.06073046      -0.01389907
C        3.09662106       2.98621965       0.62423841       47       0.04932707       0.04330489       0.01374406
O       -0.42625656       2.75924355       4.28180099       48       0.00567016      -0.06416529       0.01081736
O        1.04798334      -0.07585512       6.20237650       49      -0.03317352      -0.05508618      -0.01086379
O       -1.17294689      -0.80803189       6.28015861       50      -0.00324861      -0.06212839      -0.01994156
O        1.24638404       1.12493657       4.20401888       51      -0.02462116      -0.05716568       0.01989366
O       -3.30977150       4.34019353       0.96028775       52      -0.00567110       0.06416610      -0.01082027
O        4.33297486       0.07585512       9.52388974       53       0.03316894       0.05508606       0.01086761
O       -4.20801131       0.80803190       9.44610763       54       0.00324724       0.06213105       0.01994592
O        4.68288421       1.24154246       1.03806987       55       0.02462519       0.05716981      -0.01989768
