32
Lattice="6.17176593 0.0 0.0 0.0 8.01859859 0.0 0.0 0.0 13.03281824" Properties=species:S:1:pos:R:3:spacegroup_kinds:I:1:forces:R:3 spacegroup="P 1" unit_cell=conventional occupancy="_JSON {\"0\": {\"Li\": 1}, \"1\": {\"Li\": 1}, \"2\": {\"Li\": 1}, \"3\": {\"Li\": 1}, \"4\": {\"Li\": 1}, \"5\": {\"Li\": 1}, \"6\": {\"Li\": 1}, \"7\": {\"Li\": 1}, \"8\": {\"Li\": 1}, \"9\": {\"Li\": 1}, \"10\": {\"Li\": 1}, \"11\": {\"Li\": 1}, \"12\": {\"P\": 1}, \"13\": {\"P\": 1}, \"14\": {\"P\": 1}, \"15\": {\"P\": 1}, \"16\": {\"S\": 1}, \"17\": {\"S\": 1}, \"18\": {\"S\": 1}, \"19\": {\"S\": 1}, \"20\": {\"S\": 1}, \"21\": {\"S\": 1}, \"22\": {\"S\": 1}, \"23\": {\"S\": 1}, \"24\": {\"S\": 1}, \"25\": {\"S\": 1}, \"26\": {\"S\": 1}, \"27\": {\"S\": 1}, \"28\": {\"S\": 1}, \"29\": {\"S\": 1}, \"30\": {\"S\": 1}, \"31\": {\"S\": 1}}" energy=-140.34629821777344 free_energy=-140.34629821777344 stress="-0.002888620598241687 -1.0452322340981368e-09 1.1436129820907581e-09 -1.0452322340981368e-09 -0.004072298761457205 2.622316230826982e-08 1.1436129820907581e-09 2.622316230826982e-08 -0.002593591809272766" pbc="T T T"
Li       2.40166814       0.26892254       4.33377961        0      -0.01548990       0.00236011       0.00063542
Li       3.77009794       7.74967601       8.69903852        1       0.01548870      -0.00236021      -0.00063212
Li       5.48755105       7.74967601       2.18262939        2      -0.01549356      -0.00236110      -0.00063220
Li       0.68421474       0.26892248      10.85018869        3       0.01549118       0.00236150       0.00063256
Li       3.77009791       4.27822186       8.69903842        4       0.01548849       0.00235808      -0.00063415
Li       2.40166816       3.74037682       4.33377964        5      -0.01549017      -0.00236067       0.00063326
Li       0.68421482       3.74037682      10.85018869        6       0.01549050      -0.00236007       0.00063173
Li       5.48755101       4.27822188       2.18262938        7      -0.01549218       0.00236052      -0.00062903
Li       3.08588290      -0.00000012       0.00000004        8      -0.00000095       0.00000081      -0.00000030
Li       0.00000005      -0.00000011       6.51640927        9       0.00000132       0.00000137      -0.00000155
Li       3.08588297       4.00929937       0.00000001       10      -0.00000189      -0.00000248       0.00000044
Li       0.00000003       4.00929926       6.51640915       11       0.00000031      -0.00000172      -0.00000168
P        0.93932953       2.00464926       1.16793462       12      -0.00066817       0.00001596       0.03303283
P        5.23243628       6.01394878      11.86488433       13       0.00067182      -0.00000043      -0.03306051
P        4.02521221       6.01394898       5.34847529       14      -0.00065107       0.00000211      -0.03306378
P        2.14655384       2.00464969       7.68434325       15       0.00065304      -0.00000105       0.03305274
S        5.07612369       2.00464973       1.30682515       16       0.00280245      -0.00000101       0.01274865
S        1.09564242       6.01394888      11.72599299       17      -0.00280855      -0.00000054      -0.01274614
S        1.99024100       6.01394890       5.20958386       18       0.00279281       0.00000080      -0.01274423
S        4.18152504       2.00464962       7.82323417       19      -0.00279244      -0.00000089       0.01274845
S        1.68772173       2.00464972      12.25093567       20       0.03397092      -0.00000104       0.02524831
S        4.48404411       6.01394887       0.78188257       21      -0.03397352       0.00000095      -0.02523845
S        4.77360472       6.01394894       7.29829157       22       0.03397232       0.00000130      -0.02523588
S        1.39816136       2.00464970       5.73452693       23      -0.03397337      -0.00000005       0.02524078
S        1.68016699       0.28147996       2.00960380       24       0.02273685      -0.00260128      -0.01691627
S        4.49159895       7.73711932      11.02321407       25      -0.02272922       0.00258622       0.01692491
S        4.76604992       7.73711917       4.50680513       26       0.02272828       0.00258159       0.01692723
S        1.40571576       0.28147958       8.52601307       27      -0.02272690      -0.00258426      -0.01692618
S        4.49159896       4.29077878      11.02321425       28      -0.02272921      -0.00258631       0.01692507
S        1.68016704       3.72781969       2.00960389       29       0.02273025       0.00258675      -0.01692145
S        1.40571576       3.72781977       8.52601317       30      -0.02272695       0.00258674      -0.01692724
S        4.76604994       4.29077866       4.50680500       31       0.02272877      -0.00258176       0.01692867
