4
Lattice="3.128588 0.0 0.0 -1.5642939988088433 2.709436998432005 0.0 0.0 0.0 5.016955" Properties=species:S:1:pos:R:3:spacegroup_kinds:I:1:momenta:R:3:forces:R:3 spacegroup="P 1" unit_cell=conventional occupancy="_JSON {\"0\": {\"Al\": 1}, \"1\": {\"Al\": 1}, \"2\": {\"N\": 1}, \"3\": {\"N\": 1}}" energy=-29.623743057250977 free_energy=-29.623743057250977 stress="0.004300279542803764 -0.008672693744301796 0.002881960943341255 -0.008672693744301796 -0.006943842861801386 -0.004434617701917887 0.002881960943341255 -0.004434617701917887 -0.014839237555861473" pbc="T T T"
Al       1.54321202       0.89379620       2.53645980        0      -0.00705482      -0.41529143       0.79444897      -0.25249952       0.39303088      -0.87834418
Al       0.03580902       1.79893952       4.98957809        1       0.09337946      -0.29525118      -0.61191864      -0.16601184       0.14058287       0.62745273
N        1.59619754       0.90645098       4.40111846        2      -0.02189815       1.09350657       0.27120799      -0.08899741      -0.09593897       0.34911063
N       -0.05911253       1.83464211       1.91219264        3      -0.06442650      -0.38296392      -0.45373828       0.50750887      -0.43767464      -0.09821927
