4
Lattice="3.128588 0.0 0.0 -1.5642939988088433 2.709436998432005 0.0 0.0 0.0 5.016955" Properties=species:S:1:pos:R:3:spacegroup_kinds:I:1:momenta:R:3:forces:R:3 spacegroup="P 1" unit_cell=conventional occupancy="_JSON {\"0\": {\"Al\": 1}, \"1\": {\"Al\": 1}, \"2\": {\"N\": 1}, \"3\": {\"N\": 1}}" energy=-29.673717498779297 free_energy=-29.673717498779297 stress="-0.002225518925115466 -1.433653551430325e-06 -4.9917975530888725e-08 -1.433653551430325e-06 -0.00222752895206213 -5.0042110899539693e-08 -4.9917975530888725e-08 -5.0042110899539693e-08 -0.00545373372733593" pbc="T T T"
Al       1.56429556       0.90314476       2.50490041        0       0.68448204       0.53670047       0.91071479      -0.00003405       0.00002077       0.00553191
Al      -0.00000156       1.80629224       5.01337791        1       0.31075784       0.39520501      -1.87833745       0.00003543      -0.00001904       0.00552469
N        1.56429556       0.90314476       4.41849749        2      -0.23293981      -0.79739853      -0.40745139      -0.00003722       0.00002004      -0.00553074
N       -0.00000156       1.80629224       1.91001999        3      -0.76230006      -0.13450696       1.37507406       0.00003577      -0.00002185      -0.00552567
4
Lattice="3.128588 0.0 0.0 -1.5642939988088433 2.709436998432005 0.0 0.0 0.0 5.016955" Properties=species:S:1:pos:R:3:spacegroup_kinds:I:1:momenta:R:3:forces:R:3 spacegroup="P 1" unit_cell=conventional occupancy="_JSON {\"0\": {\"Al\": 1}, \"1\": {\"Al\": 1}, \"2\": {\"N\": 1}, \"3\": {\"N\": 1}}" energy=-29.43359375 free_energy=-29.43359375 stress="-0.013773484155535698 -0.016446463763713837 0.012948843650519848 -0.016446463763713837 -0.023968784138560295 0.00996972806751728 0.012948843650519848 0.00996972806751728 -0.012059470638632774" pbc="T T T"
Al       1.60246140       0.92231284       2.54150849        0       0.57498217      -0.13491975       1.02882469      -1.31301260      -0.49033362      -0.87831450
Al       0.00328789       1.81111140       4.94718774        1      -0.44725812       0.00118056      -1.07867298      -0.30154327      -0.59423327       1.18011880
N        1.53678587       0.85870779       4.38099594        2       0.14052034      -0.46066731       0.20203871       0.28490904       0.67984593       1.25553596
N       -0.05228244       1.80432671       2.00436659        3      -0.26824437       0.59440652      -0.15219044       1.32964659       0.40472108      -1.55734015
4
Lattice="3.128588 0.0 0.0 -1.5642939988088433 2.709436998432005 0.0 0.0 0.0 5.016955" Properties=species:S:1:pos:R:3:spacegroup_kinds:I:1:momenta:R:3:forces:R:3 spacegroup="P 1" unit_cell=conventional occupancy="_JSON {\"0\": {\"Al\": 1}, \"1\": {\"Al\": 1}, \"2\": {\"N\": 1}, \"3\": {\"N\": 1}}" energy=-29.5672550201416 free_energy=-29.5672550201416 stress="0.012915817089378834 0.0017025050474330783 0.0035793527495115995 0.0017025050474330783 -0.025856919586658478 -0.005369199439883232 0.0035793527495115995 -0.005369199439883232 -0.011435102671384811" pbc="T T T"
Al       1.59598186       0.90138486       2.55101264        0      -0.85003944      -0.64755175      -0.41676333      -0.33522511       0.74370474      -1.26921093
Al      -0.01311800       1.79082858       4.96769659        1      -0.24557019      -0.74327796       1.65595818      -0.18280244      -0.17026621       1.21499527
N        1.52960408       0.86779351       4.41996341        2       0.16413052       0.60763585       0.63654565       0.31887645       0.39321268      -0.09056896
N       -0.00060095       1.87475189       1.90756518        3       0.93147911       0.78319391      -1.87574049       0.19915128      -0.96665108       0.14478484
4
Lattice="3.128588 0.0 0.0 -1.5642939988088433 2.709436998432005 0.0 0.0 0.0 5.016955" Properties=species:S:1:pos:R:3:spacegroup_kinds:I:1:momenta:R:3:forces:R:3 spacegroup="P 1" unit_cell=conventional occupancy="_JSON {\"0\": {\"Al\": 1}, \"1\": {\"Al\": 1}, \"2\": {\"N\": 1}, \"3\": {\"N\": 1}}" energy=-29.406272888183594 free_energy=-29.406272888183594 stress="0.010688764974474907 0.016498245298862457 -0.0081639988347888 0.016498245298862457 -0.00942322425544262 -0.01555397268384695 -0.0081639988347888 -0.01555397268384695 -0.06125413998961449" pbc="T T T"
Al       1.53423931       0.87298461       2.51007450        0      -1.60925348       0.09619194      -1.03262317       0.74608791       1.00298536       0.03482401
Al      -0.01349004       1.78470221       5.05709166        1       0.21561221      -0.04339786       1.72443235       0.02271310       0.40732998      -1.66437030
N        1.55208973       0.92225132       4.42203507        2       0.38659400       0.63935804      -0.93002912       0.04495733      -0.39009792      -0.56986052
N        0.09667394       1.88681818       1.81230439        3       1.00704729      -0.69215211       0.23821992      -0.81375849      -1.02021766       2.19940662
4
Lattice="3.128588 0.0 0.0 -1.5642939988088433 2.709436998432005 0.0 0.0 0.0 5.016955" Properties=species:S:1:pos:R:3:spacegroup_kinds:I:1:momenta:R:3:forces:R:3 spacegroup="P 1" unit_cell=conventional occupancy="_JSON {\"0\": {\"Al\": 1}, \"1\": {\"Al\": 1}, \"2\": {\"N\": 1}, \"3\": {\"N\": 1}}" energy=-29.201906204223633 free_energy=-29.201906204223633 stress="-0.026440739631652832 0.0381554551422596 -0.03138264641165733 0.0381554551422596 -0.004877147730439901 0.0015437714755535126 -0.03138264641165733 0.0015437714755535126 -0.0518198162317276" pbc="T T T"
Al       1.49382404       0.87740192       2.48150487        0      -0.08661711      -0.02748783       0.25595544       2.48428249      -0.46186620       1.22611809
Al      -0.02076737       1.79337852       5.08843296        1       0.00716740       0.60209071      -1.27068274       0.64723134       0.57433438      -2.36004186
N        1.60157221       0.96971684       4.33361322        2       0.49437273       0.53651045      -0.17473349      -0.53882384      -0.70145315       1.74609041
N        0.13924904       1.81421454       1.89535166        3      -0.41492297      -1.11111336       1.18946070      -2.59269071       0.58898473      -0.61216688
4
Lattice="3.128588 0.0 0.0 -1.5642939988088433 2.709436998432005 0.0 0.0 0.0 5.016955" Properties=species:S:1:pos:R:3:spacegroup_kinds:I:1:momenta:R:3:forces:R:3 spacegroup="P 1" unit_cell=conventional occupancy="_JSON {\"0\": {\"Al\": 1}, \"1\": {\"Al\": 1}, \"2\": {\"N\": 1}, \"3\": {\"N\": 1}}" energy=-29.57463264465332 free_energy=-29.57463264465332 stress="-0.023617912083864212 -0.014321469701826572 -0.011128021404147148 -0.014321469701826572 0.015030097216367722 -0.0028545402456074953 -0.011128021404147148 -0.0028545402456074953 -0.014440195634961128" pbc="T T T"
Al       1.53421962       0.88369270       2.53780582        0       1.55944010       0.36820874       1.55971069       0.29264492      -0.24000730      -0.91367221
Al      -0.00048007       1.82107765       4.98837342        1       1.01688575       0.86374337      -2.47525479       0.94369537       0.52251303       0.78485620
N        1.63583965       0.96584649       4.40663186        2      -0.31021913      -0.52489329       1.27117350      -1.15103793      -0.78906608       0.05688014
N       -0.01177519       1.75252279       1.90648728        3      -2.26610669      -0.70705888      -0.35562953      -0.08530251       0.50656050       0.07193569
4
Lattice="3.128588 0.0 0.0 -1.5642939988088433 2.709436998432005 0.0 0.0 0.0 5.016955" Properties=species:S:1:pos:R:3:spacegroup_kinds:I:1:momenta:R:3:forces:R:3 spacegroup="P 1" unit_cell=conventional occupancy="_JSON {\"0\": {\"Al\": 1}, \"1\": {\"Al\": 1}, \"2\": {\"N\": 1}, \"3\": {\"N\": 1}}" energy=-29.372072219848633 free_energy=-29.372072219848633 stress="-0.005629410035908222 -0.018719404935836792 0.015849417075514793 -0.018719404935836792 -0.032273069024086 0.01721210777759552 0.015849417075514793 0.01721210777759552 -0.0072981384582817554" pbc="T T T"
Al       1.57072834       0.88046442       2.56331977        0      -0.00039209      -0.37629506      -0.57844104      -1.34385943      -0.44065696      -1.50707841
Al       0.05055072       1.86456081       4.94968568        1       0.52727024       0.77034113       1.04960171      -0.49129021      -1.36433840       1.82584894
N        1.58204798       0.88176659       4.44992390        2      -0.27832231      -1.02263351      -0.55459279       0.15003665       1.16376305      -0.85894930
N       -0.12661082       1.75915454       1.88869865        3      -0.24855584       0.62858740       0.08343199       1.68511295       0.64123261       0.54017854
4
Lattice="3.128588 0.0 0.0 -1.5642939988088433 2.709436998432005 0.0 0.0 0.0 5.016955" Properties=species:S:1:pos:R:3:spacegroup_kinds:I:1:momenta:R:3:forces:R:3 spacegroup="P 1" unit_cell=conventional occupancy="_JSON {\"0\": {\"Al\": 1}, \"1\": {\"Al\": 1}, \"2\": {\"N\": 1}, \"3\": {\"N\": 1}}" energy=-29.596925735473633 free_energy=-29.596925735473633 stress="0.01597629487514496 -0.004506103694438934 0.0060186125338077545 -0.004506103694438934 -0.02549942210316658 -0.004597092512995005 0.0060186125338077545 -0.004597092512995005 -0.010014035739004612" pbc="T T T"
Al       1.53284808       0.86390066       2.51395076        0      -1.59464482      -0.16469680      -1.74991386      -0.27820581       0.89915633      -0.15420443
Al       0.06317842       1.83227866       5.00948378        1       0.38440004      -1.80666611       1.59449960      -0.58708590      -0.41271710       0.16725093
N        1.58572478       0.89623787       4.41422576        2       0.14193193       1.12964946      -0.09119159       0.25704169       0.38076806       0.00228082
N       -0.08152108       1.83862419       1.90381446        3       1.06831289       0.84171343       0.24660579       0.60824996      -0.86720741      -0.01532734
4
Lattice="3.128588 0.0 0.0 -1.5642939988088433 2.709436998432005 0.0 0.0 0.0 5.016955" Properties=species:S:1:pos:R:3:spacegroup_kinds:I:1:momenta:R:3:forces:R:3 spacegroup="P 1" unit_cell=conventional occupancy="_JSON {\"0\": {\"Al\": 1}, \"1\": {\"Al\": 1}, \"2\": {\"N\": 1}, \"3\": {\"N\": 1}}" energy=-29.462554931640625 free_energy=-29.462554931640625 stress="-0.005697088781744242 0.010849370621144772 -0.003906618803739548 0.010849370621144772 -0.01913386397063732 -0.012703199870884418 -0.003906618803739548 -0.012703199870884418 -0.011871369555592537" pbc="T T T"
Al       1.48347331       0.88264394       2.44527927        0      -0.30454556       1.01149524      -0.60004544       0.88393044       0.95768428       1.70776987
Al       0.06164410       1.77681260       5.07306070        1      -0.86715245      -0.75617402       0.43048909      -0.30080616       0.71655226      -1.72279978
N        1.61717712       0.94947184       4.40498427        2       0.38645862       0.04830078       0.18623301      -0.07233990      -0.67485911       0.48910725
N       -0.01486935       1.85626149       1.92266703        3       0.78523942      -0.30362204      -0.01667670      -0.51078451      -0.99937713      -0.47407722
4
Lattice="3.128588 0.0 0.0 -1.5642939988088433 2.709436998432005 0.0 0.0 0.0 5.016955" Properties=species:S:1:pos:R:3:spacegroup_kinds:I:1:momenta:R:3:forces:R:3 spacegroup="P 1" unit_cell=conventional occupancy="_JSON {\"0\": {\"Al\": 1}, \"1\": {\"Al\": 1}, \"2\": {\"N\": 1}, \"3\": {\"N\": 1}}" energy=-29.518749237060547 free_energy=-29.518749237060547 stress="-0.023370545357465744 0.006540003698319197 -0.01609826646745205 0.006540003698319197 0.006697445642203093 -0.00048236671136692166 -0.01609826646745205 -0.00048236671136692166 -0.022161362692713737" pbc="T T T"
Al       1.50607637       0.94974320       2.46463695        0       1.15921296       0.62635233       1.50689951       1.24247599      -0.60704625       1.15697348
Al       0.01335471       1.75088040       5.06242872        1      -0.91111996       0.14825227      -0.88962640       0.51474607       0.69610542      -1.43088949
N        1.62637960       0.90489619       4.42127857        2      -0.14223551      -0.64065036       0.21498366      -0.71771777      -0.51824141      -0.07984763
N        0.02538010       1.82158363       1.88963027        3      -0.10585749      -0.13395426      -0.83225682      -1.03950405       0.42918238       0.35376364
4
Lattice="3.128588 0.0 0.0 -1.5642939988088433 2.709436998432005 0.0 0.0 0.0 5.016955" Properties=species:S:1:pos:R:3:spacegroup_kinds:I:1:momenta:R:3:forces:R:3 spacegroup="P 1" unit_cell=conventional occupancy="_JSON {\"0\": {\"Al\": 1}, \"1\": {\"Al\": 1}, \"2\": {\"N\": 1}, \"3\": {\"N\": 1}}" energy=-29.60500717163086 free_energy=-29.60500717163086 stress="0.0015958065632730722 -0.006785914767533541 -0.0030955164693295956 -0.006785914767533541 0.0017807305557653308 0.0017242934554815292 -0.0030955164693295956 0.0017242934554815292 -0.02311372198164463" pbc="T T T"
Al       1.56693923       0.93861031       2.54470909        0       1.44875323      -0.98943844       1.48437382      -0.01659331      -0.29131642      -1.20300663
Al      -0.01304568       1.78057345       4.99752450        1       0.01689817       1.11024966      -1.70729975       0.38438889       0.02358305       0.50760359
N        1.58384205       0.87104970       4.42155573        2      -0.67927474      -0.02704953      -0.19037144      -0.39237076       0.15177801      -0.39792386
N        0.00122213       1.81989279       1.85992052        3      -0.78637662      -0.09376169       0.41329737       0.02457516       0.11595535       1.09332693
4
Lattice="3.128588 0.0 0.0 -1.5642939988088433 2.709436998432005 0.0 0.0 0.0 5.016955" Properties=species:S:1:pos:R:3:spacegroup_kinds:I:1:momenta:R:3:forces:R:3 spacegroup="P 1" unit_cell=conventional occupancy="_JSON {\"0\": {\"Al\": 1}, \"1\": {\"Al\": 1}, \"2\": {\"N\": 1}, \"3\": {\"N\": 1}}" energy=-29.470205307006836 free_energy=-29.470205307006836 stress="0.0032032853923738003 -0.017801547423005104 0.011838333681225777 -0.017801547423005104 -0.04134899750351906 0.007359914947301149 0.011838333681225777 0.007359914947301149 -0.005160279106348753" pbc="T T T"
Al       1.62755627       0.89950079       2.54516751        0       1.04970781      -0.99981861      -0.80202917      -1.41065121       0.15933132      -0.91778702
Al      -0.00757055       1.81703570       4.95606285        1      -0.03757968       0.11959816      -0.16512747      -0.26242554      -0.84351814       1.41445625
N        1.52756233       0.85151204       4.42065484        2      -0.42752208       0.29023071      -0.07965771       0.31765711       0.98894846      -0.00115374
N       -0.06966666       1.84442113       1.93994532        3      -0.58460598       0.58998976       1.04681435       1.35541987      -0.30476150      -0.49551517
4
Lattice="3.128588 0.0 0.0 -1.5642939988088433 2.709436998432005 0.0 0.0 0.0 5.016955" Properties=species:S:1:pos:R:3:spacegroup_kinds:I:1:momenta:R:3:forces:R:3 spacegroup="P 1" unit_cell=conventional occupancy="_JSON {\"0\": {\"Al\": 1}, \"1\": {\"Al\": 1}, \"2\": {\"N\": 1}, \"3\": {\"N\": 1}}" energy=-29.452987670898438 free_energy=-29.452987670898438 stress="-0.01322525180876255 -0.02375013194978237 0.007911468856036663 -0.02375013194978237 -0.047931816428899765 -0.007333397399634123 0.007911468856036663 -0.007333397399634123 0.02863309532403946" pbc="T T T"
Al       1.63184039       0.85684031       2.46693548        0      -0.97589030      -0.55899527      -1.34838423      -1.39009941       1.11026251       1.17304063
Al      -0.02377743       1.82170278       4.98999600        1      -0.28018861       0.45883527       1.28013551      -0.08532578       0.08283796       0.34696999
N        1.52792699       0.92957750       4.44479003        2       0.11446489       0.97873207       0.08012544       0.22036090      -0.17399138       0.05598743
N       -0.04718869       1.83921502       2.00086009        3       1.14161405      -0.87857206      -0.01187677       1.25506425      -1.01910901      -1.57599807
4
Lattice="3.128588 0.0 0.0 -1.5642939988088433 2.709436998432005 0.0 0.0 0.0 5.016955" Properties=species:S:1:pos:R:3:spacegroup_kinds:I:1:momenta:R:3:forces:R:3 spacegroup="P 1" unit_cell=conventional occupancy="_JSON {\"0\": {\"Al\": 1}, \"1\": {\"Al\": 1}, \"2\": {\"N\": 1}, \"3\": {\"N\": 1}}" energy=-29.53631591796875 free_energy=-29.53631591796875 stress="-0.019857335835695267 0.013828937895596027 -0.005717365071177483 0.013828937895596027 -0.0031639193184673786 -0.0016709857154637575 -0.005717365071177483 -0.0016709857154637575 -0.006260510999709368" pbc="T T T"
Al       1.56291509       0.86348350       2.43836894        0      -1.44558762       0.38889107       0.34074982       0.67286021       0.11609322       1.45909584
Al      -0.01834142       1.83613132       5.05736571        1       0.19731475      -0.00921561       1.04742117       0.06595197       0.15003616      -1.19267476
N        1.54726699       0.95741147       4.47045637        2      -0.01023992       0.05685028       0.14844024       0.09761405      -0.44420916      -0.65174645
N        0.05576966       1.77068664       1.90062728        3       1.25851281      -0.43652570      -1.53661127      -0.83642614       0.17807978       0.38532525
4
Lattice="3.128588 0.0 0.0 -1.5642939988088433 2.709436998432005 0.0 0.0 0.0 5.016955" Properties=species:S:1:pos:R:3:spacegroup_kinds:I:1:momenta:R:3:forces:R:3 spacegroup="P 1" unit_cell=conventional occupancy="_JSON {\"0\": {\"Al\": 1}, \"1\": {\"Al\": 1}, \"2\": {\"N\": 1}, \"3\": {\"N\": 1}}" energy=-29.5310001373291 free_energy=-29.5310001373291 stress="-0.01829390414059162 0.015707526355981827 -0.011607656255364418 0.015707526355981827 0.0031482684426009655 0.004605604335665703 -0.011607656255364418 0.004605604335665703 -0.017258774489164352" pbc="T T T"
Al       1.54701078       0.87273547       2.46070913        0       0.71855770      -0.11584375       0.49435350       1.07476592      -0.28505707       1.06925488
Al      -0.01761628       1.84389391       5.05391120        1       0.19346417       0.17720469      -0.69190194       0.23187801      -0.07941839      -1.16825032
N        1.56395352       0.94331118       4.45961396        2       0.32487415      -0.12409466      -0.51346184      -0.11547185      -0.20503366      -0.72920382
N        0.06831348       1.75176768       1.87546337        3      -1.23689598       0.06273377       0.71101028      -1.19117212       0.56950927       0.82819915
4
Lattice="3.128588 0.0 0.0 -1.5642939988088433 2.709436998432005 0.0 0.0 0.0 5.016955" Properties=species:S:1:pos:R:3:spacegroup_kinds:I:1:momenta:R:3:forces:R:3 spacegroup="P 1" unit_cell=conventional occupancy="_JSON {\"0\": {\"Al\": 1}, \"1\": {\"Al\": 1}, \"2\": {\"N\": 1}, \"3\": {\"N\": 1}}" energy=-29.613210678100586 free_energy=-29.613210678100586 stress="-0.00838176254183054 -0.004276712890714407 0.005492891650646925 -0.004276712890714407 -0.013937088660895824 0.0014804047532379627 0.005492891650646925 0.0014804047532379627 0.012475356459617615" pbc="T T T"
Al       1.57767912       0.87033379       2.48321563        0       0.42145827      -0.10086026       0.75449422      -0.50598985       0.14215392       0.64867610
Al       0.00878681       1.84488738       5.00616577        1       0.94842525       0.04829652      -0.67234701      -0.28190845      -0.37569618       0.05942842
N        1.54733735       0.91884309       4.41695261        2      -0.50233595      -0.06173798      -0.86681620       0.26756603       0.16352430       0.34766659
N       -0.02491943       1.77881444       1.96659664        3      -0.86754754       0.11430176       0.78466902       0.52033234       0.07001823      -1.05577111
4
Lattice="3.128588 0.0 0.0 -1.5642939988088433 2.709436998432005 0.0 0.0 0.0 5.016955" Properties=species:S:1:pos:R:3:spacegroup_kinds:I:1:momenta:R:3:forces:R:3 spacegroup="P 1" unit_cell=conventional occupancy="_JSON {\"0\": {\"Al\": 1}, \"1\": {\"Al\": 1}, \"2\": {\"N\": 1}, \"3\": {\"N\": 1}}" energy=-29.557836532592773 free_energy=-29.557836532592773 stress="-0.016363775357604027 -0.0029474617913365364 0.012903598137199879 -0.0029474617913365364 -0.006207575555890799 0.0015375084476545453 0.012903598137199879 0.0015375084476545453 -0.0027145801577717066" pbc="T T T"
Al       1.59068814       0.88023430       2.52274586        0      -0.41625647       0.17887038       0.33160809      -0.90884185      -0.14030677      -0.36867964
Al       0.01872291       1.83477376       4.97781990        1       0.14973950      -0.20763020      -0.17578522      -0.72829711      -0.10046245       0.72652686
N        1.52039169       0.92489994       4.39464376        2       0.19754401       0.25939886       0.47781758       0.72475982      -0.09605040       0.71574116
N       -0.04216859       1.77342027       1.96745696        3       0.06897294      -0.23063902      -0.63364036       0.91237926       0.33681989      -1.07358813
4
Lattice="3.128588 0.0 0.0 -1.5642939988088433 2.709436998432005 0.0 0.0 0.0 5.016955" Properties=species:S:1:pos:R:3:spacegroup_kinds:I:1:momenta:R:3:forces:R:3 spacegroup="P 1" unit_cell=conventional occupancy="_JSON {\"0\": {\"Al\": 1}, \"1\": {\"Al\": 1}, \"2\": {\"N\": 1}, \"3\": {\"N\": 1}}" energy=-29.621110916137695 free_energy=-29.621110916137695 stress="-0.0215007271617651 0.0052763731218874454 -0.0032674565445631742 0.0052763731218874454 0.01065788883715868 0.0019249257165938616 -0.0032674565445631742 0.0019249257165938616 -0.0015898821875452995" pbc="T T T"
Al       1.54767650       0.89587763       2.50832858        0      -0.85809932       0.46896483      -1.00003027       0.39160365      -0.39029026      -0.15032808
Al       0.00665801       1.82067515       5.00342495        1      -0.72966941      -0.11082626       1.46536768      -0.00949525       0.22696784       0.34863088
N        1.57185932       0.94293297       4.45440720        2       0.62349867      -0.37686518       0.64593186      -0.01970120      -0.43335116      -0.83890051
N        0.01256036       1.75229420       1.88600533        3       0.96427004       0.01872665      -1.11126913      -0.36240733       0.59667391       0.64059770
4
Lattice="3.128588 0.0 0.0 -1.5642939988088433 2.709436998432005 0.0 0.0 0.0 5.016955" Properties=species:S:1:pos:R:3:spacegroup_kinds:I:1:momenta:R:3:forces:R:3 spacegroup="P 1" unit_cell=conventional occupancy="_JSON {\"0\": {\"Al\": 1}, \"1\": {\"Al\": 1}, \"2\": {\"N\": 1}, \"3\": {\"N\": 1}}" energy=-29.520856857299805 free_energy=-29.520856857299805 stress="-0.014047290198504925 0.011821012012660503 -0.014255540445446968 0.011821012012660503 -0.005614851135760546 0.009361471980810165 -0.014255540445446968 0.009361471980810165 -0.01957080326974392" pbc="T T T"
Al       1.52999432       0.91403916       2.46474572        0       0.09545128      -0.23101230      -1.18071335       1.21875155      -0.63576913       0.99289715
Al      -0.00890655       1.82180734       5.05208966        1       0.31216932      -0.10747451       0.45537654       0.39472848      -0.38378668      -1.12710059
N        1.59437713       0.88605553       4.45928985        2      -0.04799034      -0.53350308      -0.20523248      -0.40810600       0.35579127      -0.79021698
N        0.05384445       1.77207218       1.87144998        3      -0.35963027       0.87198993       0.93056940      -1.20537412       0.66376442       0.92442012
4
Lattice="3.128588 0.0 0.0 -1.5642939988088433 2.709436998432005 0.0 0.0 0.0 5.016955" Properties=species:S:1:pos:R:3:spacegroup_kinds:I:1:momenta:R:3:forces:R:3 spacegroup="P 1" unit_cell=conventional occupancy="_JSON {\"0\": {\"Al\": 1}, \"1\": {\"Al\": 1}, \"2\": {\"N\": 1}, \"3\": {\"N\": 1}}" energy=-29.618789672851562 free_energy=-29.618789672851562 stress="0.010117541067302227 -0.0018220017664134502 -0.0018730564042925835 -0.0018220017664134502 -0.024782881140708923 0.00459111575037241 -0.0018730564042925835 0.00459111575037241 2.653999035828747e-05" pbc="T T T"
Al       1.53818034       0.90928017       2.47247631        0       0.23228451      -0.27447344       1.41733243       0.21201009       0.18702042       0.85530651
Al       0.01802692       1.81430744       5.03506514        1       0.60360870      -0.42930300      -1.11140738       0.03760220      -0.69444042      -0.55142415
N        1.59518012       0.85128049       4.42414647        2       0.09084562       0.02420737      -0.77345480      -0.19470271       0.84070492       0.01228063
N       -0.01452982       1.83034435       1.92467358        3      -0.92673885       0.67956912       0.46752984      -0.05490932      -0.33328488      -0.31616315
4
Lattice="3.128588 0.0 0.0 -1.5642939988088433 2.709436998432005 0.0 0.0 0.0 5.016955" Properties=species:S:1:pos:R:3:spacegroup_kinds:I:1:momenta:R:3:forces:R:3 spacegroup="P 1" unit_cell=conventional occupancy="_JSON {\"0\": {\"Al\": 1}, \"1\": {\"Al\": 1}, \"2\": {\"N\": 1}, \"3\": {\"N\": 1}}" energy=-29.623743057250977 free_energy=-29.623743057250977 stress="0.004300279542803764 -0.008672693744301796 0.002881960943341255 -0.008672693744301796 -0.006943842861801386 -0.004434617701917887 0.002881960943341255 -0.004434617701917887 -0.014839237555861473" pbc="T T T"
Al       1.54321202       0.89379620       2.53645980        0      -0.00705482      -0.41529143       0.79444897      -0.25249952       0.39303088      -0.87834418
Al       0.03580902       1.79893952       4.98957809        1       0.09337946      -0.29525118      -0.61191864      -0.16601184       0.14058287       0.62745273
N        1.59619754       0.90645098       4.40111846        2      -0.02189815       1.09350657       0.27120799      -0.08899741      -0.09593897       0.34911063
N       -0.05911253       1.83464211       1.91219264        3      -0.06442650      -0.38296392      -0.45373828       0.50750887      -0.43767464      -0.09821927
