4
Lattice="3.128588 0.0 0.0 -1.5642939988088433 2.709436998432005 0.0 0.0 0.0 5.016955" Properties=species:S:1:pos:R:3:spacegroup_kinds:I:1:momenta:R:3:forces:R:3 spacegroup="P 1" unit_cell=conventional occupancy="_JSON {\"0\": {\"Al\": 1}, \"1\": {\"Al\": 1}, \"2\": {\"N\": 1}, \"3\": {\"N\": 1}}" energy=-29.623743057250977 free_energy=-29.623743057250977 stress="0.004300324246287346 -0.008672487922012806 0.0028819232247769833 -0.008672487922012806 -0.006943638436496258 -0.004434605594724417 0.0028819232247769833 -0.004434605594724417 -0.014839181676506996" pbc="T T T"
Al       1.54321204       0.89379620       2.53645988        0      -0.00705465      -0.41529150       0.79444908      -0.25249887       0.39302990      -0.87834525
Al       0.03580900       1.79893952       4.98957809        1       0.09337979      -0.29525107      -0.61192004      -0.16601096       0.14058112       0.62745166
N        1.59619758       0.90645095       4.40111847        2      -0.02189852       1.09350651       0.27120906      -0.08899760      -0.09593692       0.34911156
N       -0.05911257       1.83464210       1.91219257        3      -0.06442662      -0.38296394      -0.45373810       0.50750756      -0.43767396      -0.09821834
