4
Lattice="3.128588 0.0 0.0 -1.5642939988088433 2.709436998432005 0.0 0.0 0.0 5.016955" Properties=species:S:1:pos:R:3:spacegroup_kinds:I:1:momenta:R:3:forces:R:3 spacegroup="P 1" unit_cell=conventional occupancy="_JSON {\"0\": {\"Al\": 1}, \"1\": {\"Al\": 1}, \"2\": {\"N\": 1}, \"3\": {\"N\": 1}}" energy=-29.673715591430664 free_energy=-29.673715591430664 stress="-0.002225428121164441 -1.3140818282408873e-06 -1.9689240460252222e-08 -1.3140818282408873e-06 -0.002227258402854204 -4.023170774303253e-08 -1.9689240460252222e-08 -4.023170774303253e-08 -0.005453667603433132" pbc="T T T"
Al       1.56429556       0.90314476       2.50490041        0       0.68448204       0.53670047       0.91071479      -0.00003368       0.00001983       0.00553258
Al      -0.00000156       1.80629224       5.01337791        1       0.31075784       0.39520501      -1.87833745       0.00003366      -0.00001918       0.00552320
N        1.56429556       0.90314476       4.41849749        2      -0.23293981      -0.79739853      -0.40745139      -0.00003515       0.00001990      -0.00553076
N       -0.00000156       1.80629224       1.91001999        3      -0.76230006      -0.13450696       1.37507406       0.00003514      -0.00002054      -0.00552477
4
Lattice="3.128588 0.0 0.0 -1.5642939988088433 2.709436998432005 0.0 0.0 0.0 5.016955" Properties=species:S:1:pos:R:3:spacegroup_kinds:I:1:momenta:R:3:forces:R:3 spacegroup="P 1" unit_cell=conventional occupancy="_JSON {\"0\": {\"Al\": 1}, \"1\": {\"Al\": 1}, \"2\": {\"N\": 1}, \"3\": {\"N\": 1}}" energy=-29.43359375 free_energy=-29.43359375 stress="-0.013773404993116856 -0.016446411609649658 0.012948840856552124 -0.016446411609649658 -0.023968780413269997 0.009969727136194706 0.012948840856552124 0.009969727136194706 -0.012059414759278297" pbc="T T T"
Al       1.60246141       0.92231284       2.54150849        0       0.57498205      -0.13491979       1.02882501      -1.31301260      -0.49033427      -0.87831521
Al       0.00328788       1.81111139       4.94718774        1      -0.44725818       0.00118052      -1.07867347      -0.30154341      -0.59423280       1.18011868
N        1.53678589       0.85870780       4.38099594        2       0.14052051      -0.46066724       0.20203877       0.28490913       0.67984545       1.25553656
N       -0.05228245       1.80432670       2.00436659        3      -0.26824442       0.59440650      -0.15219030       1.32964694       0.40472153      -1.55734015
4
Lattice="3.128588 0.0 0.0 -1.5642939988088433 2.709436998432005 0.0 0.0 0.0 5.016955" Properties=species:S:1:pos:R:3:spacegroup_kinds:I:1:momenta:R:3:forces:R:3 spacegroup="P 1" unit_cell=conventional occupancy="_JSON {\"0\": {\"Al\": 1}, \"1\": {\"Al\": 1}, \"2\": {\"N\": 1}, \"3\": {\"N\": 1}}" energy=-29.567258834838867 free_energy=-29.567258834838867 stress="0.012915980070829391 0.0017024955013766885 0.0035793681163340807 0.0017024955013766885 -0.02585686556994915 -0.005369135644286871 0.0035793681163340807 -0.005369135644286871 -0.011435220949351788" pbc="T T T"
Al       1.59598186       0.90138486       2.55101264        0      -0.85003979      -0.64755195      -0.41676347      -0.33522785       0.74370223      -1.26921332
Al      -0.01311800       1.79082858       4.96769657        1      -0.24557028      -0.74327761       1.65595792      -0.18280226      -0.17026728       1.21499681
N        1.52960409       0.86779351       4.41996341        2       0.16413079       0.60763559       0.63654577       0.31887716       0.39321351      -0.09056935
N       -0.00060095       1.87475188       1.90756522        3       0.93147927       0.78319399      -1.87574025       0.19915298      -0.96664852       0.14478588
4
Lattice="3.128588 0.0 0.0 -1.5642939988088433 2.709436998432005 0.0 0.0 0.0 5.016955" Properties=species:S:1:pos:R:3:spacegroup_kinds:I:1:momenta:R:3:forces:R:3 spacegroup="P 1" unit_cell=conventional occupancy="_JSON {\"0\": {\"Al\": 1}, \"1\": {\"Al\": 1}, \"2\": {\"N\": 1}, \"3\": {\"N\": 1}}" energy=-29.406272888183594 free_energy=-29.406272888183594 stress="0.01068856567144394 0.016498275101184845 -0.00816398300230503 0.016498275101184845 -0.009423162788152695 -0.015553978271782398 -0.00816398300230503 -0.015553978271782398 -0.061254095286130905" pbc="T T T"
Al       1.53423928       0.87298459       2.51007451        0      -1.60925365       0.09619192      -1.03262313       0.74608892       1.00298429       0.03482443
Al      -0.01349003       1.78470222       5.05709164        1       0.21561258      -0.04339788       1.72443323       0.02271106       0.40733087      -1.66436982
N        1.55208974       0.92225131       4.42203511        2       0.38659375       0.63935805      -0.93002891       0.04495917      -0.39009801      -0.56986117
N        0.09667396       1.88681819       1.81230440        3       1.00704733      -0.69215212       0.23821881      -0.81375933      -1.02021718       2.19940567
4
Lattice="3.128588 0.0 0.0 -1.5642939988088433 2.709436998432005 0.0 0.0 0.0 5.016955" Properties=species:S:1:pos:R:3:spacegroup_kinds:I:1:momenta:R:3:forces:R:3 spacegroup="P 1" unit_cell=conventional occupancy="_JSON {\"0\": {\"Al\": 1}, \"1\": {\"Al\": 1}, \"2\": {\"N\": 1}, \"3\": {\"N\": 1}}" energy=-29.201906204223633 free_energy=-29.201906204223633 stress="-0.026440788060426712 0.038155242800712585 -0.03138265386223793 0.038155242800712585 -0.00487736240029335 0.001543715363368392 -0.03138265386223793 0.001543715363368392 -0.05181992053985596" pbc="T T T"
Al       1.49382403       0.87740191       2.48150487        0      -0.08661653      -0.02748780       0.25595545       2.48428226      -0.46186325       1.22611439
Al      -0.02076735       1.79337852       5.08843297        1       0.00716747       0.60209042      -1.27068228       0.64723206       0.57433504      -2.36003923
N        1.60157220       0.96971684       4.33361322        2       0.49437263       0.53651062      -0.17473406      -0.53882438      -0.70145261       1.74609041
N        0.13924904       1.81421454       1.89535165        3      -0.41492351      -1.11111324       1.18946095      -2.59268951       0.58898121      -0.61216521
4
Lattice="3.128588 0.0 0.0 -1.5642939988088433 2.709436998432005 0.0 0.0 0.0 5.016955" Properties=species:S:1:pos:R:3:spacegroup_kinds:I:1:momenta:R:3:forces:R:3 spacegroup="P 1" unit_cell=conventional occupancy="_JSON {\"0\": {\"Al\": 1}, \"1\": {\"Al\": 1}, \"2\": {\"N\": 1}, \"3\": {\"N\": 1}}" energy=-29.574626922607422 free_energy=-29.574626922607422 stress="-0.023618031293153763 -0.014321297407150269 -0.011127942241728306 -0.014321297407150269 0.015030094422399998 -0.0028546396642923355 -0.011127942241728306 -0.0028546396642923355 -0.014440355822443962" pbc="T T T"
Al       1.53421961       0.88369269       2.53780579        0       1.55944024       0.36820899       1.55970991       0.29264206      -0.24000430      -0.91367871
Al      -0.00048005       1.82107763       4.98837346        1       1.01688535       0.86374272      -2.47525426       0.94369560       0.52251709       0.78486687
N        1.63583965       0.96584652       4.40663182        2      -0.31021863      -0.52489262       1.27117365      -1.15103793      -0.78907299       0.05687846
N       -0.01177521       1.75252280       1.90648731        3      -2.26610688      -0.70705911      -0.35562928      -0.08529970       0.50656027       0.07193317
4
Lattice="3.128588 0.0 0.0 -1.5642939988088433 2.709436998432005 0.0 0.0 0.0 5.016955" Properties=species:S:1:pos:R:3:spacegroup_kinds:I:1:momenta:R:3:forces:R:3 spacegroup="P 1" unit_cell=conventional occupancy="_JSON {\"0\": {\"Al\": 1}, \"1\": {\"Al\": 1}, \"2\": {\"N\": 1}, \"3\": {\"N\": 1}}" energy=-29.3720703125 free_energy=-29.3720703125 stress="-0.005629572551697493 -0.018719514831900597 0.01584940403699875 -0.018719514831900597 -0.03227279335260391 0.01721223257482052 0.01584940403699875 0.01721223257482052 -0.0072983684949576855" pbc="T T T"
Al       1.57072833       0.88046442       2.56331973        0      -0.00039236      -0.37629503      -0.57844026      -1.34386456      -0.44065836      -1.50707734
Al       0.05055071       1.86456080       4.94968573        1       0.52726973       0.77034192       1.04960122      -0.49128821      -1.36434078       1.82584798
N        1.58204802       0.88176661       4.44992389        2      -0.27832197      -1.02263433      -0.55459232       0.15003484       1.16376412      -0.85894907
N       -0.12661084       1.75915453       1.88869866        3      -0.24855535       0.62858743       0.08343138       1.68511760       0.64123547       0.54017842
4
Lattice="3.128588 0.0 0.0 -1.5642939988088433 2.709436998432005 0.0 0.0 0.0 5.016955" Properties=species:S:1:pos:R:3:spacegroup_kinds:I:1:momenta:R:3:forces:R:3 spacegroup="P 1" unit_cell=conventional occupancy="_JSON {\"0\": {\"Al\": 1}, \"1\": {\"Al\": 1}, \"2\": {\"N\": 1}, \"3\": {\"N\": 1}}" energy=-29.596925735473633 free_energy=-29.596925735473633 stress="0.015976369380950928 -0.004506136756390333 0.0060186744667589664 -0.004506136756390333 -0.025499265640974045 -0.004597019404172897 0.0060186744667589664 -0.004597019404172897 -0.01001389417797327" pbc="T T T"
Al       1.53284805       0.86390066       2.51395076        0      -1.59464509      -0.16469680      -1.74991308      -0.27820152       0.89915681      -0.15420616
Al       0.06317841       1.83227867       5.00948379        1       0.38440006      -1.80666601       1.59449894      -0.58708525      -0.41271794       0.16725130
N        1.58572481       0.89623783       4.41422579        2       0.14193164       1.12964933      -0.09119129       0.25704017       0.38076806       0.00228112
N       -0.08152104       1.83862419       1.90381443        3       1.06831340       0.84171349       0.24660550       0.60824668      -0.86720675      -0.01532642
4
Lattice="3.128588 0.0 0.0 -1.5642939988088433 2.709436998432005 0.0 0.0 0.0 5.016955" Properties=species:S:1:pos:R:3:spacegroup_kinds:I:1:momenta:R:3:forces:R:3 spacegroup="P 1" unit_cell=conventional occupancy="_JSON {\"0\": {\"Al\": 1}, \"1\": {\"Al\": 1}, \"2\": {\"N\": 1}, \"3\": {\"N\": 1}}" energy=-29.462554931640625 free_energy=-29.462554931640625 stress="-0.005697090178728104 0.010849415324628353 -0.003906600642949343 0.010849415324628353 -0.0191337987780571 -0.012703188695013523 -0.003906600642949343 -0.012703188695013523 -0.011871571652591228" pbc="T T T"
Al       1.48347330       0.88264394       2.44527932        0      -0.30454486       1.01149498      -0.60004478       0.88392985       0.95768344       1.70777059
Al       0.06164410       1.77681260       5.07306068        1      -0.86715223      -0.75617443       0.43048880      -0.30080664       0.71655297      -1.72280121
N        1.61717711       0.94947183       4.40498428        2       0.38645800       0.04830146       0.18623282      -0.07233897      -0.67485946       0.48910844
N       -0.01486931       1.85626150       1.92266701        3       0.78523909      -0.30362197      -0.01667676      -0.51078427      -0.99937689      -0.47407776
4
Lattice="3.128588 0.0 0.0 -1.5642939988088433 2.709436998432005 0.0 0.0 0.0 5.016955" Properties=species:S:1:pos:R:3:spacegroup_kinds:I:1:momenta:R:3:forces:R:3 spacegroup="P 1" unit_cell=conventional occupancy="_JSON {\"0\": {\"Al\": 1}, \"1\": {\"Al\": 1}, \"2\": {\"N\": 1}, \"3\": {\"N\": 1}}" energy=-29.518753051757812 free_energy=-29.518753051757812 stress="-0.023370586335659027 0.00654016574844718 -0.0160981472581625 0.00654016574844718 0.006697679404169321 -0.00048236388829536736 -0.0160981472581625 -0.00048236388829536736 -0.022161025553941727" pbc="T T T"
Al       1.50607638       0.94974318       2.46463700        0       1.15921328       0.62635261       1.50689888       1.24247503      -0.60704607       1.15697277
Al       0.01335472       1.75088039       5.06242871        1      -0.91111986       0.14825247      -0.88962544       0.51474261       0.69610268      -1.43088925
N        1.62637953       0.90489623       4.42127854        2      -0.14223572      -0.64065043       0.21498319      -0.71771336      -0.51823890      -0.07984782
N        0.02538012       1.82158365       1.88963027        3      -0.10585769      -0.13395464      -0.83225653      -1.03950417       0.42918205       0.35376477
4
Lattice="3.128588 0.0 0.0 -1.5642939988088433 2.709436998432005 0.0 0.0 0.0 5.016955" Properties=species:S:1:pos:R:3:spacegroup_kinds:I:1:momenta:R:3:forces:R:3 spacegroup="P 1" unit_cell=conventional occupancy="_JSON {\"0\": {\"Al\": 1}, \"1\": {\"Al\": 1}, \"2\": {\"N\": 1}, \"3\": {\"N\": 1}}" energy=-29.60500717163086 free_energy=-29.60500717163086 stress="0.00159564265049994 -0.00678585609421134 -0.003095529042184353 -0.00678585609421134 0.0017806527903303504 0.0017243222100660205 -0.003095529042184353 0.0017243222100660205 -0.023113656789064407" pbc="T T T"
Al       1.56693926       0.93861031       2.54470909        0       1.44875363      -0.98943804       1.48437282      -0.01659354      -0.29131722      -1.20300615
Al      -0.01304568       1.78057346       4.99752455        1       0.01689751       1.11024981      -1.70729862       0.38438994       0.02358249       0.50760388
N        1.58384200       0.87104972       4.42155569        2      -0.67927417      -0.02704973      -0.19037146      -0.39237183       0.15177849      -0.39792490
N        0.00122212       1.81989276       1.85992054        3      -0.78637693      -0.09376201       0.41329735       0.02457543       0.11595641       1.09332681
4
Lattice="3.128588 0.0 0.0 -1.5642939988088433 2.709436998432005 0.0 0.0 0.0 5.016955" Properties=species:S:1:pos:R:3:spacegroup_kinds:I:1:momenta:R:3:forces:R:3 spacegroup="P 1" unit_cell=conventional occupancy="_JSON {\"0\": {\"Al\": 1}, \"1\": {\"Al\": 1}, \"2\": {\"N\": 1}, \"3\": {\"N\": 1}}" energy=-29.470203399658203 free_energy=-29.470203399658203 stress="0.003203204134479165 -0.017801471054553986 0.011838377453386784 -0.017801471054553986 -0.0413488931953907 0.007359880954027176 0.011838377453386784 0.007359880954027176 -0.0051603238098323345" pbc="T T T"
Al       1.62755630       0.89950079       2.54516750        0       1.04970783      -0.99981882      -0.80202901      -1.41065156       0.15933147      -0.91778839
Al      -0.00757059       1.81703573       4.95606290        1      -0.03758024       0.11959876      -0.16512800      -0.26242703      -0.84351444       1.41445756
N        1.52756234       0.85151201       4.42065485        2      -0.42752150       0.29023002      -0.07965678       0.31765914       0.98894507      -0.00115446
N       -0.06966665       1.84442112       1.93994530        3      -0.58460605       0.58999008       1.04681390       1.35541964      -0.30476165      -0.49551484
4
Lattice="3.128588 0.0 0.0 -1.5642939988088433 2.709436998432005 0.0 0.0 0.0 5.016955" Properties=species:S:1:pos:R:3:spacegroup_kinds:I:1:momenta:R:3:forces:R:3 spacegroup="P 1" unit_cell=conventional occupancy="_JSON {\"0\": {\"Al\": 1}, \"1\": {\"Al\": 1}, \"2\": {\"N\": 1}, \"3\": {\"N\": 1}}" energy=-29.452991485595703 free_energy=-29.452991485595703 stress="-0.013225436210632324 -0.023749949410557747 0.007911521010100842 -0.023749949410557747 -0.04793177545070648 -0.00733327679336071 0.007911521010100842 -0.00733327679336071 0.02863301709294319" pbc="T T T"
Al       1.63184042       0.85684029       2.46693549        0      -0.97589035      -0.55899562      -1.34838347      -1.39010584       1.11026061       1.17303586
Al      -0.02377746       1.82170282       4.98999603        1      -0.28018818       0.45883496       1.28013477      -0.08532485       0.08283386       0.34697104
N        1.52792700       0.92957746       4.44479006        2       0.11446474       0.97873259       0.08012529       0.22036159      -0.17398801       0.05598831
N       -0.04718869       1.83921503       2.00086004        3       1.14161382      -0.87857193      -0.01187654       1.25506902      -1.01910639      -1.57599497
4
Lattice="3.128588 0.0 0.0 -1.5642939988088433 2.709436998432005 0.0 0.0 0.0 5.016955" Properties=species:S:1:pos:R:3:spacegroup_kinds:I:1:momenta:R:3:forces:R:3 spacegroup="P 1" unit_cell=conventional occupancy="_JSON {\"0\": {\"Al\": 1}, \"1\": {\"Al\": 1}, \"2\": {\"N\": 1}, \"3\": {\"N\": 1}}" energy=-29.53631591796875 free_energy=-29.53631591796875 stress="-0.019857680425047874 0.013828887604176998 -0.005717400927096605 0.013828887604176998 -0.0031639807857573032 -0.0016709857154637575 -0.005717400927096605 -0.0016709857154637575 -0.006260488647967577" pbc="T T T"
Al       1.56291509       0.86348348       2.43836898        0      -1.44558851       0.38889123       0.34074985       0.67285860       0.11609408       1.45909572
Al      -0.01834142       1.83613134       5.05736570        1       0.19731544      -0.00921619       1.04742045       0.06595393       0.15003720      -1.19267273
N        1.54726698       0.95741150       4.47045639        2      -0.01024017       0.05685126       0.14843993       0.09761292      -0.44421074      -0.65174788
N        0.05576967       1.77068663       1.90062731        3       1.25851330      -0.43652631      -1.53661018      -0.83642530       0.17807944       0.38532463
4
Lattice="3.128588 0.0 0.0 -1.5642939988088433 2.709436998432005 0.0 0.0 0.0 5.016955" Properties=species:S:1:pos:R:3:spacegroup_kinds:I:1:momenta:R:3:forces:R:3 spacegroup="P 1" unit_cell=conventional occupancy="_JSON {\"0\": {\"Al\": 1}, \"1\": {\"Al\": 1}, \"2\": {\"N\": 1}, \"3\": {\"N\": 1}}" energy=-29.5310001373291 free_energy=-29.5310001373291 stress="-0.01829409971833229 0.01570752263069153 -0.011607754044234753 0.01570752263069153 0.0031478088349103928 0.004605574533343315 -0.011607754044234753 0.004605574533343315 -0.017258919775485992" pbc="T T T"
Al       1.54701076       0.87273545       2.46070917        0       0.71855736      -0.11584390       0.49435360       1.07476854      -0.28505647       1.06925464
Al      -0.01761626       1.84389392       5.05391119        1       0.19346426       0.17720451      -0.69190110       0.23187485      -0.07941486      -1.16825223
N        1.56395351       0.94331126       4.45961396        2       0.32487450      -0.12409463      -0.51346160      -0.11546984      -0.20503725      -0.72920191
N        0.06831350       1.75176765       1.87546343        3      -1.23689610       0.06273400       0.71100919      -1.19117332       0.56950855       0.82819915
4
Lattice="3.128588 0.0 0.0 -1.5642939988088433 2.709436998432005 0.0 0.0 0.0 5.016955" Properties=species:S:1:pos:R:3:spacegroup_kinds:I:1:momenta:R:3:forces:R:3 spacegroup="P 1" unit_cell=conventional occupancy="_JSON {\"0\": {\"Al\": 1}, \"1\": {\"Al\": 1}, \"2\": {\"N\": 1}, \"3\": {\"N\": 1}}" energy=-29.61321258544922 free_energy=-29.61321258544922 stress="-0.008381858468055725 -0.004276628140360117 0.005492881406098604 -0.004276628140360117 -0.013937003910541534 0.0014803753001615405 0.005492881406098604 0.0014803753001615405 0.012475353665649891" pbc="T T T"
Al       1.57767909       0.87033377       2.48321564        0       0.42145866      -0.10086012       0.75449336      -0.50598693       0.14215407       0.64867574
Al       0.00878682       1.84488739       5.00616581        1       0.94842526       0.04829730      -0.67234608      -0.28190976      -0.37569648       0.05942853
N        1.54733738       0.91884312       4.41695263        2      -0.50233570      -0.06173910      -0.86681581       0.26756704       0.16352448       0.34766790
N       -0.02491943       1.77881443       1.96659663        3      -0.86754820       0.11430189       0.78466860       0.52032977       0.07001817      -1.05577207
4
Lattice="3.128588 0.0 0.0 -1.5642939988088433 2.709436998432005 0.0 0.0 0.0 5.016955" Properties=species:S:1:pos:R:3:spacegroup_kinds:I:1:momenta:R:3:forces:R:3 spacegroup="P 1" unit_cell=conventional occupancy="_JSON {\"0\": {\"Al\": 1}, \"1\": {\"Al\": 1}, \"2\": {\"N\": 1}, \"3\": {\"N\": 1}}" energy=-29.557838439941406 free_energy=-29.557838439941406 stress="-0.016363823786377907 -0.0029474315233528614 0.012903609313070774 -0.0029474315233528614 -0.006207394879311323 0.0015374897047877312 0.012903609313070774 0.0015374897047877312 -0.0027145857457071543" pbc="T T T"
Al       1.59068815       0.88023429       2.52274585        0      -0.41625605       0.17887052       0.33160799      -0.90884328      -0.14030664      -0.36867785
Al       0.01872293       1.83477379       4.97781995        1       0.14973981      -0.20763018      -0.17578550      -0.72829705      -0.10046183       0.72652453
N        1.52039170       0.92489990       4.39464382        2       0.19754365       0.25939849       0.47781755       0.72475994      -0.09605134       0.71574157
N       -0.04216865       1.77342026       1.96745694        3       0.06897260      -0.23063885      -0.63364005       0.91238046       0.33681995      -1.07358813
4
Lattice="3.128588 0.0 0.0 -1.5642939988088433 2.709436998432005 0.0 0.0 0.0 5.016955" Properties=species:S:1:pos:R:3:spacegroup_kinds:I:1:momenta:R:3:forces:R:3 spacegroup="P 1" unit_cell=conventional occupancy="_JSON {\"0\": {\"Al\": 1}, \"1\": {\"Al\": 1}, \"2\": {\"N\": 1}, \"3\": {\"N\": 1}}" energy=-29.621112823486328 free_energy=-29.621112823486328 stress="-0.021500710397958755 0.005276340991258621 -0.003267407650128007 0.005276340991258621 0.010657703503966331 0.0019248753087595105 -0.003267407650128007 0.0019248753087595105 -0.001589826075360179" pbc="T T T"
Al       1.54767651       0.89587763       2.50832859        0      -0.85809989       0.46896513      -1.00003003       0.39160383      -0.39029008      -0.15032730
Al       0.00665804       1.82067517       5.00342494        1      -0.72966963      -0.11082688       1.46536671      -0.00949872       0.22696930       0.34863272
N        1.57185929       0.94293294       4.45440725        2       0.62349868      -0.37686474       0.64593121      -0.01969772      -0.43335247      -0.83890098
N        0.01256032       1.75229420       1.88600539        3       0.96427084       0.01872648      -1.11126784      -0.36240745       0.59667325       0.64059609
4
Lattice="3.128588 0.0 0.0 -1.5642939988088433 2.709436998432005 0.0 0.0 0.0 5.016955" Properties=species:S:1:pos:R:3:spacegroup_kinds:I:1:momenta:R:3:forces:R:3 spacegroup="P 1" unit_cell=conventional occupancy="_JSON {\"0\": {\"Al\": 1}, \"1\": {\"Al\": 1}, \"2\": {\"N\": 1}, \"3\": {\"N\": 1}}" energy=-29.520856857299805 free_energy=-29.520856857299805 stress="-0.014047489501535892 0.011820950545370579 -0.014255582354962826 0.011820950545370579 -0.005614764057099819 0.009361458010971546 -0.014255582354962826 0.009361458010971546 -0.01957101747393608" pbc="T T T"
Al       1.52999430       0.91403917       2.46474573        0       0.09545082      -0.23101243      -1.18071327       1.21875429      -0.63576931       0.99290383
Al      -0.00890654       1.82180733       5.05208965        1       0.31216869      -0.10747472       0.45537814       0.39472774      -0.38378400      -1.12710452
N        1.59437713       0.88605553       4.45928984        2      -0.04798973      -0.53350294      -0.20523348      -0.40810543       0.35578841      -0.79021609
N        0.05384447       1.77207217       1.87145007        3      -0.35962975       0.87199007       0.93056869      -1.20537651       0.66376477       0.92441654
4
Lattice="3.128588 0.0 0.0 -1.5642939988088433 2.709436998432005 0.0 0.0 0.0 5.016955" Properties=species:S:1:pos:R:3:spacegroup_kinds:I:1:momenta:R:3:forces:R:3 spacegroup="P 1" unit_cell=conventional occupancy="_JSON {\"0\": {\"Al\": 1}, \"1\": {\"Al\": 1}, \"2\": {\"N\": 1}, \"3\": {\"N\": 1}}" energy=-29.618789672851562 free_energy=-29.618789672851562 stress="0.010117411613464355 -0.001821847166866064 -0.0018730605952441692 -0.001821847166866064 -0.024783169850707054 0.004591136705130339 -0.0018730605952441692 0.004591136705130339 2.6354982765042223e-05" pbc="T T T"
Al       1.53818034       0.90928017       2.47247636        0       0.23228519      -0.27447325       1.41733335       0.21201017       0.18702127       0.85530716
Al       0.01802690       1.81430743       5.03506519        1       0.60360814      -0.42930263      -1.11140729       0.03760093      -0.69444251      -0.55142891
N        1.59518017       0.85128048       4.42414641        2       0.09084605       0.02420697      -0.77345492      -0.19470070       0.84070706       0.01229005
N       -0.01452982       1.83034436       1.92467356        3      -0.92673936       0.67956888       0.46752898      -0.05491050      -0.33328593      -0.31616804
4
Lattice="3.128588 0.0 0.0 -1.5642939988088433 2.709436998432005 0.0 0.0 0.0 5.016955" Properties=species:S:1:pos:R:3:spacegroup_kinds:I:1:momenta:R:3:forces:R:3 spacegroup="P 1" unit_cell=conventional occupancy="_JSON {\"0\": {\"Al\": 1}, \"1\": {\"Al\": 1}, \"2\": {\"N\": 1}, \"3\": {\"N\": 1}}" energy=-29.623743057250977 free_energy=-29.623743057250977 stress="0.004300324246287346 -0.008672487922012806 0.0028819232247769833 -0.008672487922012806 -0.006943638436496258 -0.004434605594724417 0.0028819232247769833 -0.004434605594724417 -0.014839181676506996" pbc="T T T"
Al       1.54321204       0.89379620       2.53645988        0      -0.00705465      -0.41529150       0.79444908      -0.25249887       0.39302990      -0.87834525
Al       0.03580900       1.79893952       4.98957809        1       0.09337979      -0.29525107      -0.61192004      -0.16601096       0.14058112       0.62745166
N        1.59619758       0.90645095       4.40111847        2      -0.02189852       1.09350651       0.27120906      -0.08899760      -0.09593692       0.34911156
N       -0.05911257       1.83464210       1.91219257        3      -0.06442662      -0.38296394      -0.45373810       0.50750756      -0.43767396      -0.09821834
