4
Lattice="3.128588 0.0 0.0 -1.5642939988088433 2.709436998432005 0.0 0.0 0.0 5.016955" Properties=species:S:1:pos:R:3:spacegroup_kinds:I:1:forces:R:3 spacegroup="P 1" unit_cell=conventional occupancy="_JSON {\"0\": {\"Al\": 1}, \"1\": {\"Al\": 1}, \"2\": {\"N\": 1}, \"3\": {\"N\": 1}}" energy=-29.673715591430664 free_energy=-29.673715591430664 stress="-0.002225428121164441 -1.3140818282408873e-06 -1.9689240460252222e-08 -1.3140818282408873e-06 -0.002227258402854204 -4.023170774303253e-08 -1.9689240460252222e-08 -4.023170774303253e-08 -0.005453667603433132" pbc="T T T"
Al       1.56429556       0.90314476       2.50490041        0      -0.00003368       0.00001983       0.00553258
Al      -0.00000156       1.80629224       5.01337791        1       0.00003366      -0.00001918       0.00552320
N        1.56429556       0.90314476       4.41849749        2      -0.00003515       0.00001990      -0.00553076
N       -0.00000156       1.80629224       1.91001999        3       0.00003514      -0.00002054      -0.00552477
