13
Lattice="7.26870274 0.0 0.0 3.634351370000001 6.294881225397555 0.0 3.634351370000001 2.0982937417991856 5.934870934989993" Properties=species:S:1:pos:R:3:spacegroup_kinds:I:1:forces:R:3 spacegroup="P 1" unit_cell=conventional occupancy="_JSON {\"0\": {\"Li\": 1}, \"1\": {\"Li\": 1}, \"2\": {\"Li\": 1}, \"3\": {\"Li\": 1}, \"4\": {\"Li\": 1}, \"5\": {\"Li\": 1}, \"6\": {\"P\": 1}, \"7\": {\"S\": 1}, \"8\": {\"S\": 1}, \"9\": {\"S\": 1}, \"10\": {\"S\": 1}, \"11\": {\"S\": 1}, \"12\": {\"Cl\": 1}}" energy=-53.3634147644043 free_energy=-53.3634147644043 stress="-0.0007942028460092843 -2.354090753442506e-07 -1.480577793699922e-07 -2.354090753442506e-07 -0.000793939980212599 -1.0836156150162424e-07 -1.480577793699922e-07 -1.0836156150162424e-07 -0.0007939016213640571" pbc="T T T"
Li       9.25387995       7.24703237       3.10460814        0       0.00422567      -0.00243438       0.00344748
Li      12.55222827       5.34273008       5.79769826        1      -0.00421080       0.00243316      -0.00344120
Li       9.25387995       5.34273008       5.79769826        2       0.00422437       0.00243887      -0.00344648
Li      12.55222827       7.24703237       3.10460814        3      -0.00421175      -0.00243067       0.00344116
Li      10.90305411       4.39057894       3.10460814        4       0.00000256       0.00487607       0.00344836
Li      10.90305411       8.19918351       5.79769826        5       0.00000229      -0.00486428      -0.00344180
P        7.26870274       4.19658748       2.96743547        6       0.00008546       0.00004624       0.00003622
S        7.26870637       6.13578650       2.28182731        7      -0.00001820      -0.01090941       0.00384765
S        8.94810016       3.22699113       2.28182731        8      -0.00945819       0.00544105       0.00384746
S        5.58931258       3.22699113       2.28182731        9       0.00937755       0.00541273       0.00383011
S        7.26870637       4.19658958       5.02426588       10      -0.00001847      -0.00000985      -0.01156892
S       10.90305411       6.29488123       4.45115320       11      -0.00000140      -0.00000047      -0.00000136
Cl       0.00000000       0.00000000       0.00000000       12       0.00000085       0.00000100       0.00000128
