4
Lattice="3.128588 0.0 0.0 -1.5642939988088433 2.709436998432005 0.0 0.0 0.0 5.016955" Properties=species:S:1:pos:R:3:spacegroup_kinds:I:1:momenta:R:3:forces:R:3 spacegroup="P 1" unit_cell=conventional occupancy="_JSON {\"0\": {\"Al\": 1}, \"1\": {\"Al\": 1}, \"2\": {\"N\": 1}, \"3\": {\"N\": 1}}" energy=-29.623743057250977 free_energy=-29.623743057250977 stress="0.004300341941416264 -0.008672550320625305 0.0028819036670029163 -0.008672550320625305 -0.006943824701011181 -0.004434620030224323 0.0028819036670029163 -0.004434620030224323 -0.014839254319667816" pbc="T T T"
Al       1.54321203       0.89379621       2.53645983        0      -0.00705503      -0.41529110       0.79445030      -0.25249955       0.39303058      -0.87834471
Al       0.03580901       1.79893949       4.98957807        1       0.09337892      -0.29525206      -0.61192016      -0.16601087       0.14058299       0.62745219
N        1.59619753       0.90645094       4.40111846        2      -0.02189748       1.09350726       0.27120826      -0.08899784      -0.09593858       0.34911078
N       -0.05911258       1.83464207       1.91219261        3      -0.06442643      -0.38296415      -0.45373835       0.50750840      -0.43767500      -0.09821817
