4
Lattice="3.128588 0.0 0.0 -1.5642939988088433 2.709436998432005 0.0 0.0 0.0 5.016955" Properties=species:S:1:pos:R:3:spacegroup_kinds:I:1:momenta:R:3:forces:R:3 spacegroup="P 1" unit_cell=conventional occupancy="_JSON {\"0\": {\"Al\": 1}, \"1\": {\"Al\": 1}, \"2\": {\"N\": 1}, \"3\": {\"N\": 1}}" energy=-29.673717498779297 free_energy=-29.673717498779297 stress="-0.002225379692390561 -1.4441426401390345e-06 -1.5522967800052356e-08 -1.4441426401390345e-06 -0.002227496588602662 -2.464015302905409e-08 -1.5522967800052356e-08 -2.464015302905409e-08 -0.00545367319136858" pbc="T T T"
Al       1.56429556       0.90314476       2.50490041        0       0.68448204       0.53670047       0.91071479      -0.00003517       0.00001877       0.00553168
Al      -0.00000156       1.80629224       5.01337791        1       0.31075784       0.39520501      -1.87833745       0.00003431      -0.00001951       0.00552489
N        1.56429556       0.90314476       4.41849749        2      -0.23293981      -0.79739853      -0.40745139      -0.00003596       0.00002057      -0.00553031
N       -0.00000156       1.80629224       1.91001999        3      -0.76230006      -0.13450696       1.37507406       0.00003676      -0.00001966      -0.00552612
4
Lattice="3.128588 0.0 0.0 -1.5642939988088433 2.709436998432005 0.0 0.0 0.0 5.016955" Properties=species:S:1:pos:R:3:spacegroup_kinds:I:1:momenta:R:3:forces:R:3 spacegroup="P 1" unit_cell=conventional occupancy="_JSON {\"0\": {\"Al\": 1}, \"1\": {\"Al\": 1}, \"2\": {\"N\": 1}, \"3\": {\"N\": 1}}" energy=-29.43359375 free_energy=-29.43359375 stress="-0.013773520477116108 -0.016446372494101524 0.012948831543326378 -0.016446372494101524 -0.023968828842043877 0.009969756938517094 0.012948831543326378 0.009969756938517094 -0.01205948181450367" pbc="T T T"
Al       1.60246141       0.92231284       2.54150848        0       0.57498217      -0.13491985       1.02882480      -1.31301320      -0.49033374      -0.87831306
Al       0.00328788       1.81111139       4.94718775        1      -0.44725820       0.00118043      -1.07867308      -0.30154160      -0.59423345       1.18011761
N        1.53678589       0.85870780       4.38099594        2       0.14052050      -0.46066713       0.20203864       0.28490734       0.67984593       1.25553679
N       -0.05228246       1.80432670       2.00436659        3      -0.26824449       0.59440657      -0.15219031       1.32964742       0.40472126      -1.55734122
4
Lattice="3.128588 0.0 0.0 -1.5642939988088433 2.709436998432005 0.0 0.0 0.0 5.016955" Properties=species:S:1:pos:R:3:spacegroup_kinds:I:1:momenta:R:3:forces:R:3 spacegroup="P 1" unit_cell=conventional occupancy="_JSON {\"0\": {\"Al\": 1}, \"1\": {\"Al\": 1}, \"2\": {\"N\": 1}, \"3\": {\"N\": 1}}" energy=-29.5672550201416 free_energy=-29.5672550201416 stress="0.012915614992380142 0.0017025646520778537 0.0035793245770037174 0.0017025646520778537 -0.025857260450720787 -0.005369151476770639 0.0035793245770037174 -0.005369151476770639 -0.011435180902481079" pbc="T T T"
Al       1.59598185       0.90138486       2.55101264        0      -0.85003991      -0.64755176      -0.41676299      -0.33522671       0.74370408      -1.26921046
Al      -0.01311800       1.79082857       4.96769658        1      -0.24557020      -0.74327815       1.65595771      -0.18280397      -0.17026746       1.21499598
N        1.52960410       0.86779353       4.41996342        2       0.16413070       0.60763595       0.63654580       0.31887859       0.39321393      -0.09056939
N       -0.00060095       1.87475189       1.90756520        3       0.93147937       0.78319395      -1.87574054       0.19915208      -0.96665061       0.14478371
4
Lattice="3.128588 0.0 0.0 -1.5642939988088433 2.709436998432005 0.0 0.0 0.0 5.016955" Properties=species:S:1:pos:R:3:spacegroup_kinds:I:1:momenta:R:3:forces:R:3 spacegroup="P 1" unit_cell=conventional occupancy="_JSON {\"0\": {\"Al\": 1}, \"1\": {\"Al\": 1}, \"2\": {\"N\": 1}, \"3\": {\"N\": 1}}" energy=-29.406274795532227 free_energy=-29.406274795532227 stress="0.010688568465411663 0.01649818755686283 -0.008164027705788612 0.01649818755686283 -0.009423179551959038 -0.015553930774331093 -0.008164027705788612 -0.015553930774331093 -0.061254072934389114" pbc="T T T"
Al       1.53423928       0.87298460       2.51007452        0      -1.60925368       0.09619198      -1.03262313       0.74608970       1.00298393       0.03482289
Al      -0.01349003       1.78470221       5.05709164        1       0.21561251      -0.04339755       1.72443312       0.02271223       0.40732995      -1.66436946
N        1.55208975       0.92225133       4.42203509        2       0.38659364       0.63935767      -0.93002924       0.04495766      -0.39009750      -0.56986070
N        0.09667396       1.88681819       1.81230438        3       1.00704750      -0.69215212       0.23821923      -0.81375980      -1.02021646       2.19940662
4
Lattice="3.128588 0.0 0.0 -1.5642939988088433 2.709436998432005 0.0 0.0 0.0 5.016955" Properties=species:S:1:pos:R:3:spacegroup_kinds:I:1:momenta:R:3:forces:R:3 spacegroup="P 1" unit_cell=conventional occupancy="_JSON {\"0\": {\"Al\": 1}, \"1\": {\"Al\": 1}, \"2\": {\"N\": 1}, \"3\": {\"N\": 1}}" energy=-29.201904296875 free_energy=-29.201904296875 stress="-0.026440801098942757 0.03815518692135811 -0.03138264641165733 0.03815518692135811 -0.0048774671740829945 0.0015436697285622358 -0.03138264641165733 0.0015436697285622358 -0.051819801330566406" pbc="T T T"
Al       1.49382402       0.87740191       2.48150488        0      -0.08661650      -0.02748791       0.25595531       2.48428154      -0.46186188       1.22611475
Al      -0.02076735       1.79337852       5.08843297        1       0.00716753       0.60209075      -1.27068243       0.64723420       0.57433450      -2.36004019
N        1.60157219       0.96971682       4.33361319        2       0.49437255       0.53651017      -0.17473389      -0.53882635      -0.70145237       1.74608994
N        0.13924906       1.81421456       1.89535166        3      -0.41492354      -1.11111307       1.18946093      -2.59268951       0.58897996      -0.61216480
4
Lattice="3.128588 0.0 0.0 -1.5642939988088433 2.709436998432005 0.0 0.0 0.0 5.016955" Properties=species:S:1:pos:R:3:spacegroup_kinds:I:1:momenta:R:3:forces:R:3 spacegroup="P 1" unit_cell=conventional occupancy="_JSON {\"0\": {\"Al\": 1}, \"1\": {\"Al\": 1}, \"2\": {\"N\": 1}, \"3\": {\"N\": 1}}" energy=-29.574628829956055 free_energy=-29.574628829956055 stress="-0.023618001490831375 -0.01432141475379467 -0.01112806610763073 -0.01432141475379467 0.015030128881335258 -0.0028545563109219074 -0.01112806610763073 -0.0028545563109219074 -0.014440464787185192" pbc="T T T"
Al       1.53421961       0.88369269       2.53780582        0       1.55944005       0.36820895       1.55971033       0.29264450      -0.24000409      -0.91367328
Al      -0.00048006       1.82107765       4.98837343        1       1.01688507       0.86374282      -2.47525489       0.94369513       0.52251315       0.78485811
N        1.63583964       0.96584647       4.40663183        2      -0.31021837      -0.52489268       1.27117405      -1.15103698      -0.78906751       0.05688006
N       -0.01177521       1.75252282       1.90648728        3      -2.26610680      -0.70705916      -0.35562959      -0.08530272       0.50655842       0.07193549
4
Lattice="3.128588 0.0 0.0 -1.5642939988088433 2.709436998432005 0.0 0.0 0.0 5.016955" Properties=species:S:1:pos:R:3:spacegroup_kinds:I:1:momenta:R:3:forces:R:3 spacegroup="P 1" unit_cell=conventional occupancy="_JSON {\"0\": {\"Al\": 1}, \"1\": {\"Al\": 1}, \"2\": {\"N\": 1}, \"3\": {\"N\": 1}}" energy=-29.3720703125 free_energy=-29.3720703125 stress="-0.005629617255181074 -0.018719539046287537 0.015849368646740913 -0.018719539046287537 -0.032272856682538986 0.017212199047207832 0.015849368646740913 0.017212199047207832 -0.007298205513507128" pbc="T T T"
Al       1.57072833       0.88046442       2.56331975        0      -0.00039236      -0.37629460      -0.57844112      -1.34386539      -0.44065806      -1.50707591
Al       0.05055071       1.86456080       4.94968569        1       0.52726978       0.77034102       1.04960164      -0.49128798      -1.36434007       1.82584679
N        1.58204802       0.88176661       4.44992392        2      -0.27832209      -1.02263330      -0.55459263       0.15003474       1.16376305      -0.85894895
N       -0.12661084       1.75915453       1.88869865        3      -0.24855539       0.62858682       0.08343200       1.68511879       0.64123487       0.54017812
4
Lattice="3.128588 0.0 0.0 -1.5642939988088433 2.709436998432005 0.0 0.0 0.0 5.016955" Properties=species:S:1:pos:R:3:spacegroup_kinds:I:1:momenta:R:3:forces:R:3 spacegroup="P 1" unit_cell=conventional occupancy="_JSON {\"0\": {\"Al\": 1}, \"1\": {\"Al\": 1}, \"2\": {\"N\": 1}, \"3\": {\"N\": 1}}" energy=-29.596925735473633 free_energy=-29.596925735473633 stress="0.015976542606949806 -0.004506080411374569 0.0060186926275491714 -0.004506080411374569 -0.02549918182194233 -0.004597148392349482 0.0060186926275491714 -0.004597148392349482 -0.010013725608587265" pbc="T T T"
Al       1.53284805       0.86390067       2.51395074        0      -1.59464527      -0.16469696      -1.74991382      -0.27820686       0.89915651      -0.15420410
Al       0.06317840       1.83227863       5.00948378        1       0.38440022      -1.80666625       1.59449926      -0.58708322      -0.41271627       0.16724946
N        1.58572480       0.89623790       4.41422579        2       0.14193143       1.12964948      -0.09119147       0.25704017       0.38076597       0.00228338
N       -0.08152103       1.83862416       1.90381447        3       1.06831356       0.84171360       0.24660595       0.60824990      -0.86720628      -0.01532847
4
Lattice="3.128588 0.0 0.0 -1.5642939988088433 2.709436998432005 0.0 0.0 0.0 5.016955" Properties=species:S:1:pos:R:3:spacegroup_kinds:I:1:momenta:R:3:forces:R:3 spacegroup="P 1" unit_cell=conventional occupancy="_JSON {\"0\": {\"Al\": 1}, \"1\": {\"Al\": 1}, \"2\": {\"N\": 1}, \"3\": {\"N\": 1}}" energy=-29.462554931640625 free_energy=-29.462554931640625 stress="-0.005697172600775957 0.010849402286112309 -0.00390662532299757 0.010849402286112309 -0.019133657217025757 -0.01270317193120718 -0.00390662532299757 -0.01270317193120718 -0.011871319264173508" pbc="T T T"
Al       1.48347328       0.88264394       2.44527927        0      -0.30454473       1.01149473      -0.60004519       0.88393092       0.95768380       1.70777047
Al       0.06164411       1.77681258       5.07306069        1      -0.86715186      -0.75617354       0.43048941      -0.30080628       0.71655333      -1.72279906
N        1.61717708       0.94947185       4.40498428        2       0.38645790       0.04830027       0.18623269      -0.07233959      -0.67486000       0.48910660
N       -0.01486929       1.85626149       1.92266705        3       0.78523863      -0.30362157      -0.01667692      -0.51078516      -0.99937725      -0.47407782
4
Lattice="3.128588 0.0 0.0 -1.5642939988088433 2.709436998432005 0.0 0.0 0.0 5.016955" Properties=species:S:1:pos:R:3:spacegroup_kinds:I:1:momenta:R:3:forces:R:3 spacegroup="P 1" unit_cell=conventional occupancy="_JSON {\"0\": {\"Al\": 1}, \"1\": {\"Al\": 1}, \"2\": {\"N\": 1}, \"3\": {\"N\": 1}}" energy=-29.518753051757812 free_energy=-29.518753051757812 stress="-0.023370370268821716 0.006540112197399139 -0.016098160296678543 0.006540112197399139 0.006697394885122776 -0.0004824332718271762 -0.016098160296678543 -0.0004824332718271762 -0.022160746157169342" pbc="T T T"
Al       1.50607638       0.94974318       2.46463697        0       1.15921344       0.62635261       1.50689986       1.24247456      -0.60704505       1.15697062
Al       0.01335472       1.75088040       5.06242872        1      -0.91112052       0.14825291      -0.88962604       0.51474547       0.69610453      -1.43088734
N        1.62637953       0.90489616       4.42127857        2      -0.14223498      -0.64065105       0.21498375      -0.71771675      -0.51823950      -0.07984887
N        0.02538008       1.82158366       1.88963025        3      -0.10585793      -0.13395457      -0.83225758      -1.03950310       0.42918015       0.35376579
4
Lattice="3.128588 0.0 0.0 -1.5642939988088433 2.709436998432005 0.0 0.0 0.0 5.016955" Properties=species:S:1:pos:R:3:spacegroup_kinds:I:1:momenta:R:3:forces:R:3 spacegroup="P 1" unit_cell=conventional occupancy="_JSON {\"0\": {\"Al\": 1}, \"1\": {\"Al\": 1}, \"2\": {\"N\": 1}, \"3\": {\"N\": 1}}" energy=-29.605009078979492 free_energy=-29.605009078979492 stress="0.0015959074953570962 -0.006785991135984659 -0.0030955865513533354 -0.006785991135984659 0.0017804880626499653 0.0017242612084373832 -0.0030955865513533354 0.0017242612084373832 -0.023113468661904335" pbc="T T T"
Al       1.56693924       0.93861031       2.54470911        0       1.44875283      -0.98943799       1.48437383      -0.01659286      -0.29131484      -1.20300877
Al      -0.01304571       1.78057345       4.99752450        1       0.01689733       1.11024893      -1.70730013       0.38438529       0.02358250       0.50760597
N        1.58384205       0.87104967       4.42155573        2      -0.67927380      -0.02704881      -0.19037150      -0.39236873       0.15177840      -0.39792421
N        0.00122212       1.81989276       1.85992050        3      -0.78637632      -0.09376220       0.41329781       0.02457649       0.11595391       1.09332728
4
Lattice="3.128588 0.0 0.0 -1.5642939988088433 2.709436998432005 0.0 0.0 0.0 5.016955" Properties=species:S:1:pos:R:3:spacegroup_kinds:I:1:momenta:R:3:forces:R:3 spacegroup="P 1" unit_cell=conventional occupancy="_JSON {\"0\": {\"Al\": 1}, \"1\": {\"Al\": 1}, \"2\": {\"N\": 1}, \"3\": {\"N\": 1}}" energy=-29.470205307006836 free_energy=-29.470205307006836 stress="0.0032031675800681114 -0.017801575362682343 0.011838347651064396 -0.017801575362682343 -0.041348863393068314 0.007359965704381466 0.011838347651064396 0.007359965704381466 -0.005160189233720303" pbc="T T T"
Al       1.62755624       0.89950079       2.54516752        0       1.04970722      -0.99981903      -0.80202980      -1.41064680       0.15933362      -0.91778934
Al      -0.00757060       1.81703569       4.95606284        1      -0.03757933       0.11959808      -0.16512763      -0.26242453      -0.84351647       1.41445470
N        1.52756239       0.85151205       4.42065484        2      -0.42752211       0.29023096      -0.07965730       0.31765604       0.98894680      -0.00115317
N       -0.06966663       1.84442110       1.93994534        3      -0.58460574       0.58998989       1.04681476       1.35541511      -0.30476412      -0.49551216
4
Lattice="3.128588 0.0 0.0 -1.5642939988088433 2.709436998432005 0.0 0.0 0.0 5.016955" Properties=species:S:1:pos:R:3:spacegroup_kinds:I:1:momenta:R:3:forces:R:3 spacegroup="P 1" unit_cell=conventional occupancy="_JSON {\"0\": {\"Al\": 1}, \"1\": {\"Al\": 1}, \"2\": {\"N\": 1}, \"3\": {\"N\": 1}}" energy=-29.452985763549805 free_energy=-29.452985763549805 stress="-0.013225249014794827 -0.023750122636556625 0.007911445572972298 -0.023750122636556625 -0.04793214052915573 -0.007333432789891958 0.007911445572972298 -0.007333432789891958 0.02863311767578125" pbc="T T T"
Al       1.63184034       0.85684027       2.46693547        0      -0.97589043      -0.55899579      -1.34838379      -1.39010108       1.11026335       1.17304099
Al      -0.02377744       1.82170277       4.98999599        1      -0.28018779       0.45883547       1.28013553      -0.08532754       0.08283636       0.34697452
N        1.52792700       0.92957752       4.44479003        2       0.11446431       0.97873211       0.08012520       0.22036275      -0.17398913       0.05598930
N       -0.04718865       1.83921502       2.00086012        3       1.14161386      -0.87857190      -0.01187694       1.25506568      -1.01911080      -1.57600522
4
Lattice="3.128588 0.0 0.0 -1.5642939988088433 2.709436998432005 0.0 0.0 0.0 5.016955" Properties=species:S:1:pos:R:3:spacegroup_kinds:I:1:momenta:R:3:forces:R:3 spacegroup="P 1" unit_cell=conventional occupancy="_JSON {\"0\": {\"Al\": 1}, \"1\": {\"Al\": 1}, \"2\": {\"N\": 1}, \"3\": {\"N\": 1}}" energy=-29.53631591796875 free_energy=-29.53631591796875 stress="-0.01985756866633892 0.013829082250595093 -0.005717359483242035 0.013829082250595093 -0.003163930494338274 -0.0016709710471332073 -0.005717359483242035 -0.0016709710471332073 -0.0062606679275631905" pbc="T T T"
Al       1.56291505       0.86348347       2.43836896        0      -1.44558717       0.38889174       0.34075051       0.67286003       0.11609249       1.45909655
Al      -0.01834140       1.83613133       5.05736571        1       0.19731504      -0.00921514       1.04742107       0.06595151       0.15003628      -1.19267488
N        1.54726696       0.95741147       4.47045637        2      -0.01024005       0.05684985       0.14844037       0.09761471      -0.44420952      -0.65174681
N        0.05576965       1.77068660       1.90062726        3       1.25851214      -0.43652655      -1.53661201      -0.83642608       0.17808077       0.38532519
4
Lattice="3.128588 0.0 0.0 -1.5642939988088433 2.709436998432005 0.0 0.0 0.0 5.016955" Properties=species:S:1:pos:R:3:spacegroup_kinds:I:1:momenta:R:3:forces:R:3 spacegroup="P 1" unit_cell=conventional occupancy="_JSON {\"0\": {\"Al\": 1}, \"1\": {\"Al\": 1}, \"2\": {\"N\": 1}, \"3\": {\"N\": 1}}" energy=-29.5310001373291 free_energy=-29.5310001373291 stress="-0.018293876200914383 0.01570761762559414 -0.011607661843299866 0.01570761762559414 0.003148126881569624 0.0046056341379880905 -0.011607661843299866 0.0046056341379880905 -0.017258955165743828" pbc="T T T"
Al       1.54701076       0.87273546       2.46070917        0       0.71855768      -0.11584365       0.49435360       1.07476795      -0.28505796       1.06925321
Al      -0.01761626       1.84389394       5.05391119        1       0.19346371       0.17720484      -0.69190201       0.23187599      -0.07941885      -1.16825032
N        1.56395350       0.94331116       4.45961397        2       0.32487460      -0.12409490      -0.51346220      -0.11547054      -0.20503342      -0.72920197
N        0.06831344       1.75176760       1.87546332        3      -1.23689602       0.06273361       0.71101054      -1.19117332       0.56951034       0.82819897
4
Lattice="3.128588 0.0 0.0 -1.5642939988088433 2.709436998432005 0.0 0.0 0.0 5.016955" Properties=species:S:1:pos:R:3:spacegroup_kinds:I:1:momenta:R:3:forces:R:3 spacegroup="P 1" unit_cell=conventional occupancy="_JSON {\"0\": {\"Al\": 1}, \"1\": {\"Al\": 1}, \"2\": {\"N\": 1}, \"3\": {\"N\": 1}}" energy=-29.613210678100586 free_energy=-29.613210678100586 stress="-0.008381913416087627 -0.004276636056602001 0.00549286836758256 -0.004276636056602001 -0.013937113806605339 0.001480416627600789 0.00549286836758256 0.001480416627600789 0.012475378811359406" pbc="T T T"
Al       1.57767909       0.87033376       2.48321566        0       0.42145824      -0.10086083       0.75449368      -0.50598782       0.14215332       0.64867610
Al       0.00878680       1.84488739       5.00616576        1       0.94842465       0.04829605      -0.67234687      -0.28190964      -0.37569746       0.05942935
N        1.54733738       0.91884308       4.41695257        2      -0.50233567      -0.06173769      -0.86681677       0.26756734       0.16352510       0.34766605
N       -0.02491945       1.77881440       1.96659665        3      -0.86754725       0.11430244       0.78466994       0.52033019       0.07001907      -1.05577087
4
Lattice="3.128588 0.0 0.0 -1.5642939988088433 2.709436998432005 0.0 0.0 0.0 5.016955" Properties=species:S:1:pos:R:3:spacegroup_kinds:I:1:momenta:R:3:forces:R:3 spacegroup="P 1" unit_cell=conventional occupancy="_JSON {\"0\": {\"Al\": 1}, \"1\": {\"Al\": 1}, \"2\": {\"N\": 1}, \"3\": {\"N\": 1}}" energy=-29.55784034729004 free_energy=-29.55784034729004 stress="-0.01636396162211895 -0.00294759264215827 0.012903794646263123 -0.00294759264215827 -0.006207721307873726 0.001537646516226232 0.012903794646263123 0.001537646516226232 -0.0027146025095134974" pbc="T T T"
Al       1.59068813       0.88023425       2.52274586        0      -0.41625571       0.17887044       0.33160738      -0.90884042      -0.14030822      -0.36868036
Al       0.01872289       1.83477375       4.97781989        1       0.14973962      -0.20763093      -0.17578522      -0.72829813      -0.10046440       0.72652668
N        1.52039171       0.92489996       4.39464373        2       0.19754344       0.25939949       0.47781823       0.72475982      -0.09605011       0.71574503
N       -0.04216861       1.77342027       1.96745702        3       0.06897265      -0.23063904      -0.63364035       0.91237873       0.33682263      -1.07359099
4
Lattice="3.128588 0.0 0.0 -1.5642939988088433 2.709436998432005 0.0 0.0 0.0 5.016955" Properties=species:S:1:pos:R:3:spacegroup_kinds:I:1:momenta:R:3:forces:R:3 spacegroup="P 1" unit_cell=conventional occupancy="_JSON {\"0\": {\"Al\": 1}, \"1\": {\"Al\": 1}, \"2\": {\"N\": 1}, \"3\": {\"N\": 1}}" energy=-29.621110916137695 free_energy=-29.621110916137695 stress="-0.021500786766409874 0.005276380106806755 -0.003267474239692092 0.005276380106806755 0.010658064857125282 0.001924916636198759 -0.003267474239692092 0.001924916636198759 -0.0015898989513516426" pbc="T T T"
Al       1.54767651       0.89587759       2.50832856        0      -0.85809938       0.46896560      -1.00003040       0.39160269      -0.39029098      -0.15032294
Al       0.00665798       1.82067512       5.00342493        1      -0.72966947      -0.11082627       1.46536760      -0.00950187       0.22697160       0.34862721
N        1.57185929       0.94293300       4.45440723        2       0.62349840      -0.37686537       0.64593223      -0.01969512      -0.43335390      -0.83889866
N        0.01256035       1.75229419       1.88600539        3       0.96427047       0.01872599      -1.11126941      -0.36240560       0.59667343       0.64059436
4
Lattice="3.128588 0.0 0.0 -1.5642939988088433 2.709436998432005 0.0 0.0 0.0 5.016955" Properties=species:S:1:pos:R:3:spacegroup_kinds:I:1:momenta:R:3:forces:R:3 spacegroup="P 1" unit_cell=conventional occupancy="_JSON {\"0\": {\"Al\": 1}, \"1\": {\"Al\": 1}, \"2\": {\"N\": 1}, \"3\": {\"N\": 1}}" energy=-29.520856857299805 free_energy=-29.520856857299805 stress="-0.014047329314053059 0.011820919811725616 -0.014255554415285587 0.011820919811725616 -0.00561452517285943 0.009361473843455315 -0.014255554415285587 0.009361473843455315 -0.019571084529161453" pbc="T T T"
Al       1.52999431       0.91403914       2.46474569        0       0.09545103      -0.23101245      -1.18071363       1.21875250      -0.63577068       0.99289817
Al      -0.00890656       1.82180732       5.05208965        1       0.31216988      -0.10747411       0.45537805       0.39472869      -0.38378447      -1.12710261
N        1.59437708       0.88605551       4.45928988        2      -0.04799075      -0.53350379      -0.20523312      -0.40810615       0.35578924      -0.79021531
N        0.05384448       1.77207216       1.87144999        3      -0.35963015       0.87199033       0.93056879      -1.20537472       0.66376591       0.92441964
4
Lattice="3.128588 0.0 0.0 -1.5642939988088433 2.709436998432005 0.0 0.0 0.0 5.016955" Properties=species:S:1:pos:R:3:spacegroup_kinds:I:1:momenta:R:3:forces:R:3 spacegroup="P 1" unit_cell=conventional occupancy="_JSON {\"0\": {\"Al\": 1}, \"1\": {\"Al\": 1}, \"2\": {\"N\": 1}, \"3\": {\"N\": 1}}" energy=-29.618785858154297 free_energy=-29.618785858154297 stress="0.010117810219526291 -0.0018219136400148273 -0.0018730279989540577 -0.0018219136400148273 -0.024783041328191757 0.004591138567775488 -0.0018730279989540577 0.004591138567775488 2.6439078283146955e-05" pbc="T T T"
Al       1.53818034       0.90928015       2.47247629        0       0.23228494      -0.27447287       1.41733303       0.21200882       0.18702185       0.85530829
Al       0.01802692       1.81430743       5.03506518        1       0.60360871      -0.42930303      -1.11140768       0.03760270      -0.69444287      -0.55142635
N        1.59518007       0.85128041       4.42414645        2       0.09084598       0.02420710      -0.77345524      -0.19470289       0.84070712       0.01228264
N       -0.01452984       1.83034435       1.92467355        3      -0.92673963       0.67956877       0.46752995      -0.05490856      -0.33328637      -0.31616437
4
Lattice="3.128588 0.0 0.0 -1.5642939988088433 2.709436998432005 0.0 0.0 0.0 5.016955" Properties=species:S:1:pos:R:3:spacegroup_kinds:I:1:momenta:R:3:forces:R:3 spacegroup="P 1" unit_cell=conventional occupancy="_JSON {\"0\": {\"Al\": 1}, \"1\": {\"Al\": 1}, \"2\": {\"N\": 1}, \"3\": {\"N\": 1}}" energy=-29.623743057250977 free_energy=-29.623743057250977 stress="0.004300341941416264 -0.008672550320625305 0.0028819036670029163 -0.008672550320625305 -0.006943824701011181 -0.004434620030224323 0.0028819036670029163 -0.004434620030224323 -0.014839254319667816" pbc="T T T"
Al       1.54321203       0.89379621       2.53645983        0      -0.00705503      -0.41529110       0.79445030      -0.25249955       0.39303058      -0.87834471
Al       0.03580901       1.79893949       4.98957807        1       0.09337892      -0.29525206      -0.61192016      -0.16601087       0.14058299       0.62745219
N        1.59619753       0.90645094       4.40111846        2      -0.02189748       1.09350726       0.27120826      -0.08899784      -0.09593858       0.34911078
N       -0.05911258       1.83464207       1.91219261        3      -0.06442643      -0.38296415      -0.45373835       0.50750840      -0.43767500      -0.09821817
