4
Lattice="3.128588 0.0 0.0 -1.5642939988088433 2.709436998432005 0.0 0.0 0.0 5.016955" Properties=species:S:1:pos:R:3:spacegroup_kinds:I:1:momenta:R:3:forces:R:3 spacegroup="P 1" unit_cell=conventional occupancy="_JSON {\"0\": {\"Al\": 1}, \"1\": {\"Al\": 1}, \"2\": {\"N\": 1}, \"3\": {\"N\": 1}}" energy=-29.62374496459961 free_energy=-29.62374496459961 stress="0.004300384316593409 -0.008672432042658329 0.002881778171285987 -0.008672432042658329 -0.006943807937204838 -0.004434450063854456 0.002881778171285987 -0.004434450063854456 -0.01483894046396017" pbc="T T T"
Al       1.54321206       0.89379624       2.53645983        0      -0.00705455      -0.41529115       0.79444988      -0.25250137       0.39302775      -0.87834513
Al       0.03580898       1.79893952       4.98957808        1       0.09337910      -0.29525196      -0.61191890      -0.16601130       0.14058004       0.62744999
N        1.59619754       0.90645096       4.40111847        2      -0.02189819       1.09350753       0.27120773      -0.08899596      -0.09593706       0.34911209
N       -0.05911258       1.83464205       1.91219261        3      -0.06442635      -0.38296442      -0.45373866       0.50750870      -0.43767059      -0.09821729
