4
Lattice="3.128588 0.0 0.0 -1.5642939988088433 2.709436998432005 0.0 0.0 0.0 5.016955" Properties=species:S:1:pos:R:3:spacegroup_kinds:I:1:momenta:R:3:forces:R:3 spacegroup="P 1" unit_cell=conventional occupancy="_JSON {\"0\": {\"Al\": 1}, \"1\": {\"Al\": 1}, \"2\": {\"N\": 1}, \"3\": {\"N\": 1}}" energy=-29.673717498779297 free_energy=-29.673717498779297 stress="-0.0022255026269704103 -1.4220490811567288e-06 3.197477838057239e-09 -1.4220490811567288e-06 -0.0022273717913776636 -2.9095085452013336e-08 3.197477838057239e-09 -2.9095085452013336e-08 -0.005453640129417181" pbc="T T T"
Al       1.56429556       0.90314476       2.50490041        0       0.68448204       0.53670047       0.91071479      -0.00003534       0.00002027       0.00553259
Al      -0.00000156       1.80629224       5.01337791        1       0.31075784       0.39520501      -1.87833745       0.00003498      -0.00002062       0.00552376
N        1.56429556       0.90314476       4.41849749        2      -0.23293981      -0.79739853      -0.40745139      -0.00003671       0.00002111      -0.00553089
N       -0.00000156       1.80629224       1.91001999        3      -0.76230006      -0.13450696       1.37507406       0.00003715      -0.00002099      -0.00552554
4
Lattice="3.128588 0.0 0.0 -1.5642939988088433 2.709436998432005 0.0 0.0 0.0 5.016955" Properties=species:S:1:pos:R:3:spacegroup_kinds:I:1:momenta:R:3:forces:R:3 spacegroup="P 1" unit_cell=conventional occupancy="_JSON {\"0\": {\"Al\": 1}, \"1\": {\"Al\": 1}, \"2\": {\"N\": 1}, \"3\": {\"N\": 1}}" energy=-29.433591842651367 free_energy=-29.433591842651367 stress="-0.013773445039987564 -0.016446439549326897 0.012948812916874886 -0.016446439549326897 -0.023968873545527458 0.009969736449420452 0.012948812916874886 0.009969736449420452 -0.012059403583407402" pbc="T T T"
Al       1.60246141       0.92231284       2.54150848        0       0.57498196      -0.13491965       1.02882471      -1.31301332      -0.49033409      -0.87831223
Al       0.00328789       1.81111140       4.94718774        1      -0.44725801       0.00118078      -1.07867308      -0.30154073      -0.59423286       1.18011737
N        1.53678587       0.85870779       4.38099594        2       0.14052033      -0.46066744       0.20203868       0.28490704       0.67984521       1.25553775
N       -0.05228244       1.80432669       2.00436659        3      -0.26824429       0.59440636      -0.15219029       1.32964718       0.40472177      -1.55734265
4
Lattice="3.128588 0.0 0.0 -1.5642939988088433 2.709436998432005 0.0 0.0 0.0 5.016955" Properties=species:S:1:pos:R:3:spacegroup_kinds:I:1:momenta:R:3:forces:R:3 spacegroup="P 1" unit_cell=conventional occupancy="_JSON {\"0\": {\"Al\": 1}, \"1\": {\"Al\": 1}, \"2\": {\"N\": 1}, \"3\": {\"N\": 1}}" energy=-29.5672550201416 free_energy=-29.5672550201416 stress="0.012915605679154396 0.0017025858396664262 0.00357940886169672 0.0017025858396664262 -0.025856902822852135 -0.00536902854219079 0.00357940886169672 -0.00536902854219079 -0.011435085907578468" pbc="T T T"
Al       1.59598185       0.90138487       2.55101265        0      -0.85003973      -0.64755169      -0.41676289      -0.33522630       0.74370199      -1.26921105
Al      -0.01311800       1.79082859       4.96769657        1      -0.24557040      -0.74327793       1.65595766      -0.18280254      -0.17026865       1.21499658
N        1.52960409       0.86779351       4.41996341        2       0.16413085       0.60763587       0.63654558       0.31887656       0.39321288      -0.09057185
N       -0.00060094       1.87475186       1.90756520        3       0.93147926       0.78319389      -1.87574035       0.19915238      -0.96664637       0.14478639
4
Lattice="3.128588 0.0 0.0 -1.5642939988088433 2.709436998432005 0.0 0.0 0.0 5.016955" Properties=species:S:1:pos:R:3:spacegroup_kinds:I:1:momenta:R:3:forces:R:3 spacegroup="P 1" unit_cell=conventional occupancy="_JSON {\"0\": {\"Al\": 1}, \"1\": {\"Al\": 1}, \"2\": {\"N\": 1}, \"3\": {\"N\": 1}}" energy=-29.406274795532227 free_energy=-29.406274795532227 stress="0.01068874541670084 0.016498083248734474 -0.00816402118653059 0.016498083248734474 -0.009423199109733105 -0.015554018318653107 -0.00816402118653059 -0.015554018318653107 -0.061254050582647324" pbc="T T T"
Al       1.53423929       0.87298462       2.51007453        0      -1.60925365       0.09619166      -1.03262352       0.74608701       1.00298786       0.03482383
Al      -0.01349004       1.78470222       5.05709164        1       0.21561247      -0.04339802       1.72443339       0.02271288       0.40732989      -1.66436982
N        1.55208975       0.92225133       4.42203507        2       0.38659383       0.63935824      -0.93002924       0.04495740      -0.39009780      -0.56986117
N        0.09667395       1.88681816       1.81230440        3       1.00704732      -0.69215181       0.23821934      -0.81375730      -1.02021980       2.19940710
4
Lattice="3.128588 0.0 0.0 -1.5642939988088433 2.709436998432005 0.0 0.0 0.0 5.016955" Properties=species:S:1:pos:R:3:spacegroup_kinds:I:1:momenta:R:3:forces:R:3 spacegroup="P 1" unit_cell=conventional occupancy="_JSON {\"0\": {\"Al\": 1}, \"1\": {\"Al\": 1}, \"2\": {\"N\": 1}, \"3\": {\"N\": 1}}" energy=-29.201902389526367 free_energy=-29.201902389526367 stress="-0.02644096128642559 0.03815538436174393 -0.03138265013694763 0.03815538436174393 -0.00487736938521266 0.001543808146379888 -0.03138265013694763 0.001543808146379888 -0.051819756627082825" pbc="T T T"
Al       1.49382403       0.87740192       2.48150487        0      -0.08661643      -0.02748815       0.25595518       2.48428202      -0.46186879       1.22612011
Al      -0.02076736       1.79337852       5.08843298        1       0.00716750       0.60209073      -1.27068227       0.64723289       0.57433414      -2.36004353
N        1.60157221       0.96971685       4.33361321        2       0.49437239       0.53651032      -0.17473351      -0.53882527      -0.70145261       1.74609029
N        0.13924904       1.81421455       1.89535164        3      -0.41492351      -1.11111287       1.18946055      -2.59268999       0.58898711      -0.61216760
4
Lattice="3.128588 0.0 0.0 -1.5642939988088433 2.709436998432005 0.0 0.0 0.0 5.016955" Properties=species:S:1:pos:R:3:spacegroup_kinds:I:1:momenta:R:3:forces:R:3 spacegroup="P 1" unit_cell=conventional occupancy="_JSON {\"0\": {\"Al\": 1}, \"1\": {\"Al\": 1}, \"2\": {\"N\": 1}, \"3\": {\"N\": 1}}" energy=-29.574626922607422 free_energy=-29.574626922607422 stress="-0.023617934435606003 -0.01432124525308609 -0.01112794503569603 -0.01432124525308609 0.01503014750778675 -0.0028546249959617853 -0.01112794503569603 -0.0028546249959617853 -0.014440431259572506" pbc="T T T"
Al       1.53421962       0.88369269       2.53780578        0       1.55944015       0.36820897       1.55971007       0.29264370      -0.24000394      -0.91367543
Al      -0.00048006       1.82107764       4.98837346        1       1.01688516       0.86374279      -2.47525464       0.94369429       0.52251619       0.78486198
N        1.63583964       0.96584651       4.40663185        2      -0.31021860      -0.52489277       1.27117378      -1.15103614      -0.78907263       0.05687730
N       -0.01177521       1.75252282       1.90648728        3      -2.26610672      -0.70705902      -0.35562920      -0.08530174       0.50656039       0.07193637
4
Lattice="3.128588 0.0 0.0 -1.5642939988088433 2.709436998432005 0.0 0.0 0.0 5.016955" Properties=species:S:1:pos:R:3:spacegroup_kinds:I:1:momenta:R:3:forces:R:3 spacegroup="P 1" unit_cell=conventional occupancy="_JSON {\"0\": {\"Al\": 1}, \"1\": {\"Al\": 1}, \"2\": {\"N\": 1}, \"3\": {\"N\": 1}}" energy=-29.372068405151367 free_energy=-29.372068405151367 stress="-0.005629364866763353 -0.018719684332609177 0.01584937982261181 -0.018719684332609177 -0.03227291256189346 0.017212124541401863 0.01584937982261181 0.017212124541401863 -0.007298261858522892" pbc="T T T"
Al       1.57072833       0.88046443       2.56331973        0      -0.00039269      -0.37629477      -0.57844036      -1.34386086      -0.44065630      -1.50707746
Al       0.05055069       1.86456080       4.94968571        1       0.52726986       0.77034166       1.04960132      -0.49128583      -1.36434245       1.82584858
N        1.58204802       0.88176662       4.44992391        2      -0.27832222      -1.02263400      -0.55459300       0.15003252       1.16376531      -0.85894895
N       -0.12661082       1.75915454       1.88869866        3      -0.24855496       0.62858704       0.08343200       1.68511426       0.64123333       0.54017818
4
Lattice="3.128588 0.0 0.0 -1.5642939988088433 2.709436998432005 0.0 0.0 0.0 5.016955" Properties=species:S:1:pos:R:3:spacegroup_kinds:I:1:momenta:R:3:forces:R:3 spacegroup="P 1" unit_cell=conventional occupancy="_JSON {\"0\": {\"Al\": 1}, \"1\": {\"Al\": 1}, \"2\": {\"N\": 1}, \"3\": {\"N\": 1}}" energy=-29.596925735473633 free_energy=-29.596925735473633 stress="0.015976516529917717 -0.004506130237132311 0.006018619053065777 -0.004506130237132311 -0.0254993736743927 -0.004597150720655918 0.006018619053065777 -0.004597150720655918 -0.010013807564973831" pbc="T T T"
Al       1.53284805       0.86390068       2.51395075        0      -1.59464511      -0.16469710      -1.74991355      -0.27820596       0.89915615      -0.15420476
Al       0.06317840       1.83227865       5.00948379        1       0.38440023      -1.80666619       1.59449920      -0.58708608      -0.41271681       0.16725065
N        1.58572478       0.89623788       4.41422576        2       0.14193130       1.12964948      -0.09119140       0.25704166       0.38076741       0.00228145
N       -0.08152100       1.83862418       1.90381448        3       1.06831355       0.84171373       0.24660570       0.60825038      -0.86720657      -0.01532738
4
Lattice="3.128588 0.0 0.0 -1.5642939988088433 2.709436998432005 0.0 0.0 0.0 5.016955" Properties=species:S:1:pos:R:3:spacegroup_kinds:I:1:momenta:R:3:forces:R:3 spacegroup="P 1" unit_cell=conventional occupancy="_JSON {\"0\": {\"Al\": 1}, \"1\": {\"Al\": 1}, \"2\": {\"N\": 1}, \"3\": {\"N\": 1}}" energy=-29.46255111694336 free_energy=-29.46255111694336 stress="-0.005697099957615137 0.010849432088434696 -0.003906639758497477 0.010849432088434696 -0.019133640453219414 -0.012703248299658298 -0.003906639758497477 -0.012703248299658298 -0.01187139842659235" pbc="T T T"
Al       1.48347331       0.88264394       2.44527928        0      -0.30454426       1.01149457      -0.60004516       0.88393164       0.95768380       1.70776963
Al       0.06164409       1.77681259       5.07306069        1      -0.86715235      -0.75617392       0.43048924      -0.30080575       0.71655500      -1.72279930
N        1.61717707       0.94947186       4.40498428        2       0.38645836       0.04830078       0.18623300      -0.07233979      -0.67486185       0.48910686
N       -0.01486930       1.85626150       1.92266703        3       0.78523823      -0.30362148      -0.01667712      -0.51078629      -0.99937683      -0.47407675
4
Lattice="3.128588 0.0 0.0 -1.5642939988088433 2.709436998432005 0.0 0.0 0.0 5.016955" Properties=species:S:1:pos:R:3:spacegroup_kinds:I:1:momenta:R:3:forces:R:3 spacegroup="P 1" unit_cell=conventional occupancy="_JSON {\"0\": {\"Al\": 1}, \"1\": {\"Al\": 1}, \"2\": {\"N\": 1}, \"3\": {\"N\": 1}}" energy=-29.518747329711914 free_energy=-29.518747329711914 stress="-0.02337079681456089 0.006539853755384684 -0.01609812304377556 0.006539853755384684 0.006697665434330702 -0.0004823407798539847 -0.01609812304377556 -0.0004823407798539847 -0.022161485627293587" pbc="T T T"
Al       1.50607641       0.94974318       2.46463696        0       1.15921309       0.62635238       1.50689942       1.24246991      -0.60704708       1.15697348
Al       0.01335471       1.75088040       5.06242873        1      -0.91112022       0.14825276      -0.88962598       0.51474309       0.69610637      -1.43088865
N        1.62637952       0.90489619       4.42127856        2      -0.14223516      -0.64065080       0.21498348      -0.71771526      -0.51824141      -0.07984760
N        0.02538007       1.82158370       1.88963026        3      -0.10585772      -0.13395434      -0.83225692      -1.03949773       0.42918223       0.35376292
4
Lattice="3.128588 0.0 0.0 -1.5642939988088433 2.709436998432005 0.0 0.0 0.0 5.016955" Properties=species:S:1:pos:R:3:spacegroup_kinds:I:1:momenta:R:3:forces:R:3 spacegroup="P 1" unit_cell=conventional occupancy="_JSON {\"0\": {\"Al\": 1}, \"1\": {\"Al\": 1}, \"2\": {\"N\": 1}, \"3\": {\"N\": 1}}" energy=-29.60500717163086 free_energy=-29.60500717163086 stress="0.001595674897544086 -0.006785860285162926 -0.0030955837573856115 -0.006785860285162926 0.0017806849209591746 0.0017242993926629424 -0.0030955837573856115 0.0017242993926629424 -0.023113569244742393" pbc="T T T"
Al       1.56693924       0.93861031       2.54470910        0       1.44875243      -0.98943767       1.48437400      -0.01659181      -0.29131764      -1.20300674
Al      -0.01304571       1.78057346       4.99752452        1       0.01689719       1.11024924      -1.70729992       0.38438886       0.02358386       0.50760406
N        1.58384203       0.87104969       4.42155571        2      -0.67927377      -0.02704912      -0.19037150      -0.39237070       0.15177724      -0.39792433
N        0.00122215       1.81989279       1.85992051        3      -0.78637587      -0.09376246       0.41329745       0.02457374       0.11595649       1.09332681
4
Lattice="3.128588 0.0 0.0 -1.5642939988088433 2.709436998432005 0.0 0.0 0.0 5.016955" Properties=species:S:1:pos:R:3:spacegroup_kinds:I:1:momenta:R:3:forces:R:3 spacegroup="P 1" unit_cell=conventional occupancy="_JSON {\"0\": {\"Al\": 1}, \"1\": {\"Al\": 1}, \"2\": {\"N\": 1}, \"3\": {\"N\": 1}}" energy=-29.470205307006836 free_energy=-29.470205307006836 stress="0.0032032320741564035 -0.017801513895392418 0.011838295497000217 -0.017801513895392418 -0.041349075734615326 0.0073599559254944324 0.011838295497000217 0.0073599559254944324 -0.005160228349268436" pbc="T T T"
Al       1.62755625       0.89950081       2.54516752        0       1.04970776      -0.99981821      -0.80202914      -1.41064763       0.15933266      -0.91778994
Al      -0.00757061       1.81703570       4.95606285        1      -0.03757951       0.11959819      -0.16512811      -0.26242432      -0.84351611       1.41445541
N        1.52756238       0.85151205       4.42065485        2      -0.42752196       0.29023085      -0.07965722       0.31765604       0.98894668      -0.00115319
N       -0.06966659       1.84442110       1.93994531        3      -0.58460631       0.58998916       1.04681452       1.35541594      -0.30476272      -0.49551201
4
Lattice="3.128588 0.0 0.0 -1.5642939988088433 2.709436998432005 0.0 0.0 0.0 5.016955" Properties=species:S:1:pos:R:3:spacegroup_kinds:I:1:momenta:R:3:forces:R:3 spacegroup="P 1" unit_cell=conventional occupancy="_JSON {\"0\": {\"Al\": 1}, \"1\": {\"Al\": 1}, \"2\": {\"N\": 1}, \"3\": {\"N\": 1}}" energy=-29.452985763549805 free_energy=-29.452985763549805 stress="-0.013225492089986801 -0.023750174790620804 0.007911437191069126 -0.023750174790620804 -0.047931984066963196 -0.007333377841860056 0.007911437191069126 -0.007333377841860056 0.028633084148168564" pbc="T T T"
Al       1.63184038       0.85684031       2.46693548        0      -0.97588993      -0.55899605      -1.34838427      -1.39010072       1.11026013       1.17303991
Al      -0.02377745       1.82170278       4.98999597        1      -0.28018772       0.45883529       1.28013515      -0.08532885       0.08283858       0.34697461
N        1.52792699       0.92957752       4.44479006        2       0.11446439       0.97873224       0.08012543       0.22036384      -0.17399113       0.05598971
N       -0.04718868       1.83921499       2.00086012        3       1.14161325      -0.87857149      -0.01187628       1.25506604      -1.01910770      -1.57600427
4
Lattice="3.128588 0.0 0.0 -1.5642939988088433 2.709436998432005 0.0 0.0 0.0 5.016955" Properties=species:S:1:pos:R:3:spacegroup_kinds:I:1:momenta:R:3:forces:R:3 spacegroup="P 1" unit_cell=conventional occupancy="_JSON {\"0\": {\"Al\": 1}, \"1\": {\"Al\": 1}, \"2\": {\"N\": 1}, \"3\": {\"N\": 1}}" energy=-29.536317825317383 free_energy=-29.536317825317383 stress="-0.019857516512274742 0.013828973285853863 -0.005717344582080841 0.013828973285853863 -0.0031641351524740458 -0.001670928904786706 -0.005717344582080841 -0.001670928904786706 -0.006260477472096682" pbc="T T T"
Al       1.56291508       0.86348349       2.43836895        0      -1.44558776       0.38889097       0.34074965       0.67285740       0.11609283       1.45909452
Al      -0.01834140       1.83613134       5.05736568        1       0.19731548      -0.00921483       1.04742191       0.06595200       0.15003538      -1.19267106
N        1.54726694       0.95741147       4.47045642        2      -0.01024021       0.05684952       0.14844036       0.09761465      -0.44420883      -0.65174341
N        0.05576963       1.77068664       1.90062732        3       1.25851248      -0.43652566      -1.53661186      -0.83642399       0.17808045       0.38531998
4
Lattice="3.128588 0.0 0.0 -1.5642939988088433 2.709436998432005 0.0 0.0 0.0 5.016955" Properties=species:S:1:pos:R:3:spacegroup_kinds:I:1:momenta:R:3:forces:R:3 spacegroup="P 1" unit_cell=conventional occupancy="_JSON {\"0\": {\"Al\": 1}, \"1\": {\"Al\": 1}, \"2\": {\"N\": 1}, \"3\": {\"N\": 1}}" energy=-29.531002044677734 free_energy=-29.531002044677734 stress="-0.01829385943710804 0.01570763811469078 -0.011607715860009193 0.01570763811469078 0.00314802466891706 0.004605624359101057 -0.011607715860009193 0.004605624359101057 -0.017258908599615097" pbc="T T T"
Al       1.54701075       0.87273545       2.46070914        0       0.71855713      -0.11584336       0.49435388       1.07476711      -0.28505772       1.06925321
Al      -0.01761625       1.84389395       5.05391121        1       0.19346391       0.17720463      -0.69190126       0.23187687      -0.07941934      -1.16825283
N        1.56395350       0.94331115       4.45961399        2       0.32487461      -0.12409472      -0.51346241      -0.11547162      -0.20503235      -0.72920024
N        0.06831345       1.75176769       1.87546336        3      -1.23689564       0.06273343       0.71100976      -1.19117236       0.56950939       0.82819986
4
Lattice="3.128588 0.0 0.0 -1.5642939988088433 2.709436998432005 0.0 0.0 0.0 5.016955" Properties=species:S:1:pos:R:3:spacegroup_kinds:I:1:momenta:R:3:forces:R:3 spacegroup="P 1" unit_cell=conventional occupancy="_JSON {\"0\": {\"Al\": 1}, \"1\": {\"Al\": 1}, \"2\": {\"N\": 1}, \"3\": {\"N\": 1}}" energy=-29.61321258544922 free_energy=-29.61321258544922 stress="-0.008381691761314869 -0.004276564344763756 0.005492858588695526 -0.004276564344763756 -0.013937189243733883 0.001480416627600789 0.005492858588695526 0.001480416627600789 0.012475445866584778" pbc="T T T"
Al       1.57767907       0.87033380       2.48321565        0       0.42145829      -0.10085961       0.75449459      -0.50598544       0.14215457       0.64867753
Al       0.00878682       1.84488739       5.00616580        1       0.94842485       0.04829565      -0.67234719      -0.28191066      -0.37569791       0.05942719
N        1.54733738       0.91884308       4.41695256        2      -0.50233553      -0.06173737      -0.86681698       0.26756781       0.16352589       0.34766635
N       -0.02491943       1.77881441       1.96659664        3      -0.86754761       0.11430131       0.78466961       0.52032834       0.07001749      -1.05577052
4
Lattice="3.128588 0.0 0.0 -1.5642939988088433 2.709436998432005 0.0 0.0 0.0 5.016955" Properties=species:S:1:pos:R:3:spacegroup_kinds:I:1:momenta:R:3:forces:R:3 spacegroup="P 1" unit_cell=conventional occupancy="_JSON {\"0\": {\"Al\": 1}, \"1\": {\"Al\": 1}, \"2\": {\"N\": 1}, \"3\": {\"N\": 1}}" energy=-29.55784034729004 free_energy=-29.55784034729004 stress="-0.016363486647605896 -0.002947521861642599 0.012903692200779915 -0.002947521861642599 -0.006207277532666922 0.0015375538496300578 0.012903692200779915 0.0015375538496300578 -0.0027149165980517864" pbc="T T T"
Al       1.59068812       0.88023432       2.52274589        0      -0.41625549       0.17887033       0.33160833      -0.90884244      -0.14030623      -0.36868247
Al       0.01872291       1.83477373       4.97781991        1       0.14973958      -0.20763102      -0.17578572      -0.72829562      -0.10046206       0.72653061
N        1.52039173       0.92490000       4.39464370        2       0.19754367       0.25939950       0.47781785       0.72475839      -0.09605108       0.71573937
N       -0.04216863       1.77342023       1.96745698        3       0.06897227      -0.23063880      -0.63364044       0.91237974       0.33681941      -1.07358730
4
Lattice="3.128588 0.0 0.0 -1.5642939988088433 2.709436998432005 0.0 0.0 0.0 5.016955" Properties=species:S:1:pos:R:3:spacegroup_kinds:I:1:momenta:R:3:forces:R:3 spacegroup="P 1" unit_cell=conventional occupancy="_JSON {\"0\": {\"Al\": 1}, \"1\": {\"Al\": 1}, \"2\": {\"N\": 1}, \"3\": {\"N\": 1}}" energy=-29.621110916137695 free_energy=-29.621110916137695 stress="-0.0215007234364748 0.005276507697999477 -0.0032674390822649 0.005276507697999477 0.010657483711838722 0.0019248654134571552 -0.0032674390822649 0.0019248654134571552 -0.0015898317797109485" pbc="T T T"
Al       1.54767650       0.89587763       2.50832859        0      -0.85809956       0.46896454      -1.00003194       0.39160496      -0.39028955      -0.15032402
Al       0.00665801       1.82067512       5.00342495        1      -0.72966940      -0.11082564       1.46536800      -0.00949541       0.22696966       0.34862816
N        1.57185932       0.94293302       4.45440720        2       0.62349826      -0.37686587       0.64593259      -0.01970071      -0.43335295      -0.83890009
N        0.01256031       1.75229421       1.88600536        3       0.96427072       0.01872700      -1.11126862      -0.36240885       0.59667289       0.64059603
4
Lattice="3.128588 0.0 0.0 -1.5642939988088433 2.709436998432005 0.0 0.0 0.0 5.016955" Properties=species:S:1:pos:R:3:spacegroup_kinds:I:1:momenta:R:3:forces:R:3 spacegroup="P 1" unit_cell=conventional occupancy="_JSON {\"0\": {\"Al\": 1}, \"1\": {\"Al\": 1}, \"2\": {\"N\": 1}, \"3\": {\"N\": 1}}" energy=-29.520856857299805 free_energy=-29.520856857299805 stress="-0.01404756959527731 0.011821014806628227 -0.014255648478865623 0.011821014806628227 -0.005614750552922487 0.009361553937196732 -0.014255648478865623 0.009361553937196732 -0.019570983946323395" pbc="T T T"
Al       1.52999430       0.91403916       2.46474566        0       0.09545119      -0.23101267      -1.18071386       1.21875560      -0.63577217       0.99290204
Al      -0.00890655       1.82180734       5.05208968        1       0.31216911      -0.10747367       0.45537711       0.39472780      -0.38378483      -1.12710428
N        1.59437710       0.88605550       4.45928988        2      -0.04799040      -0.53350398      -0.20523274      -0.40810674       0.35578990      -0.79021490
N        0.05384448       1.77207221       1.87145004        3      -0.35962990       0.87199036       0.93056955      -1.20537674       0.66376710       0.92441732
4
Lattice="3.128588 0.0 0.0 -1.5642939988088433 2.709436998432005 0.0 0.0 0.0 5.016955" Properties=species:S:1:pos:R:3:spacegroup_kinds:I:1:momenta:R:3:forces:R:3 spacegroup="P 1" unit_cell=conventional occupancy="_JSON {\"0\": {\"Al\": 1}, \"1\": {\"Al\": 1}, \"2\": {\"N\": 1}, \"3\": {\"N\": 1}}" energy=-29.61878776550293 free_energy=-29.61878776550293 stress="0.010117706842720509 -0.0018221716163679957 -0.0018729838775470853 -0.0018221716163679957 -0.024783112108707428 0.004591092467308044 -0.0018729838775470853 0.004591092467308044 2.650915484991856e-05" pbc="T T T"
Al       1.53818035       0.90928017       2.47247628        0       0.23228557      -0.27447234       1.41733399       0.21201247       0.18702570       0.85530746
Al       0.01802690       1.81430746       5.03506517        1       0.60360820      -0.42930295      -1.11140846       0.03760265      -0.69444060      -0.55142605
N        1.59518011       0.85128041       4.42414650        2       0.09084601       0.02420734      -0.77345453      -0.19470444       0.84070432       0.01228356
N       -0.01452984       1.83034438       1.92467359        3      -0.92673979       0.67956796       0.46752906      -0.05491055      -0.33328950      -0.31616467
4
Lattice="3.128588 0.0 0.0 -1.5642939988088433 2.709436998432005 0.0 0.0 0.0 5.016955" Properties=species:S:1:pos:R:3:spacegroup_kinds:I:1:momenta:R:3:forces:R:3 spacegroup="P 1" unit_cell=conventional occupancy="_JSON {\"0\": {\"Al\": 1}, \"1\": {\"Al\": 1}, \"2\": {\"N\": 1}, \"3\": {\"N\": 1}}" energy=-29.62374496459961 free_energy=-29.62374496459961 stress="0.004300384316593409 -0.008672432042658329 0.002881778171285987 -0.008672432042658329 -0.006943807937204838 -0.004434450063854456 0.002881778171285987 -0.004434450063854456 -0.01483894046396017" pbc="T T T"
Al       1.54321206       0.89379624       2.53645983        0      -0.00705455      -0.41529115       0.79444988      -0.25250137       0.39302775      -0.87834513
Al       0.03580898       1.79893952       4.98957808        1       0.09337910      -0.29525196      -0.61191890      -0.16601130       0.14058004       0.62744999
N        1.59619754       0.90645096       4.40111847        2      -0.02189819       1.09350753       0.27120773      -0.08899596      -0.09593706       0.34911209
N       -0.05911258       1.83464205       1.91219261        3      -0.06442635      -0.38296442      -0.45373866       0.50750870      -0.43767059      -0.09821729
