4
Lattice="3.128588 0.0 0.0 -1.5642939988088433 2.709436998432005 0.0 0.0 0.0 5.016955" Properties=species:S:1:pos:R:3:spacegroup_kinds:I:1:forces:R:3 spacegroup="P 1" unit_cell=conventional occupancy="_JSON {\"0\": {\"Al\": 1}, \"1\": {\"Al\": 1}, \"2\": {\"N\": 1}, \"3\": {\"N\": 1}}" energy=-29.673717498779297 free_energy=-29.673717498779297 stress="-0.0022255026269704103 -1.4220490811567288e-06 3.197477838057239e-09 -1.4220490811567288e-06 -0.0022273717913776636 -2.9095085452013336e-08 3.197477838057239e-09 -2.9095085452013336e-08 -0.005453640129417181" pbc="T T T"
Al       1.56429556       0.90314476       2.50490041        0      -0.00003534       0.00002027       0.00553259
Al      -0.00000156       1.80629224       5.01337791        1       0.00003498      -0.00002062       0.00552376
N        1.56429556       0.90314476       4.41849749        2      -0.00003671       0.00002111      -0.00553089
N       -0.00000156       1.80629224       1.91001999        3       0.00003715      -0.00002099      -0.00552554
