32
Lattice="6.17176593 0.0 0.0 0.0 8.01859859 0.0 0.0 0.0 13.03281824" Properties=species:S:1:pos:R:3:spacegroup_kinds:I:1:momenta:R:3:forces:R:3 spacegroup="P 1" unit_cell=conventional occupancy="_JSON {\"0\": {\"Li\": 1.0}, \"1\": {\"Li\": 1.0}, \"2\": {\"Li\": 1.0}, \"3\": {\"Li\": 1.0}, \"4\": {\"Li\": 1.0}, \"5\": {\"Li\": 1.0}, \"6\": {\"Li\": 1.0}, \"7\": {\"Li\": 1.0}, \"8\": {\"Li\": 1.0}, \"9\": {\"Li\": 1.0}, \"10\": {\"Li\": 1.0}, \"11\": {\"Li\": 1.0}, \"12\": {\"P\": 1.0}, \"13\": {\"P\": 1.0}, \"14\": {\"P\": 1.0}, \"15\": {\"P\": 1.0}, \"16\": {\"S\": 1.0}, \"17\": {\"S\": 1.0}, \"18\": {\"S\": 1.0}, \"19\": {\"S\": 1.0}, \"20\": {\"S\": 1.0}, \"21\": {\"S\": 1.0}, \"22\": {\"S\": 1.0}, \"23\": {\"S\": 1.0}, \"24\": {\"S\": 1.0}, \"25\": {\"S\": 1.0}, \"26\": {\"S\": 1.0}, \"27\": {\"S\": 1.0}, \"28\": {\"S\": 1.0}, \"29\": {\"S\": 1.0}, \"30\": {\"S\": 1.0}, \"31\": {\"S\": 1.0}}" energy=-140.1896514892578 free_energy=-140.1896514892578 stress="-0.0023210749495774508 0.000514024228323251 -0.0008486827136948705 0.000514024228323251 -0.005000654142349958 -0.001968336757272482 -0.0008486827136948705 -0.001968336757272482 -0.001648478675633669" pbc="T T T"
Li       2.39557942       0.22300555       4.29660260        0      -0.30222147       0.09095933       0.09958810      -0.04341774       0.06029334       0.16904770
Li       3.70024311       7.67083176       8.65559452        1      -0.25887969      -0.26078512       0.08623366       0.08388796       0.13216586       0.14411947
Li       5.46755841       7.75884957       2.14584314        2      -0.03989273       0.01009063       0.16073910       0.04059572      -0.00866763       0.12953664
Li       0.73437205       0.33215906      10.92271323        3      -0.12193655       0.40770780       0.35150730      -0.11041638      -0.18366328      -0.06706609
Li       3.79655010       4.22113365       8.64992243        4       0.12409332       0.23264622      -0.07250107      -0.00286411       0.11694585       0.05468336
Li       2.38399277       3.75941984       4.25945411        5       0.05323132       0.09244030      -0.02183752      -0.04708124      -0.08073424       0.14774480
Li       0.71914594       3.77505148      10.83739790        6      -0.37645927       0.07524931      -0.02849390       0.01615749      -0.13256463      -0.01172857
Li       5.53230006       4.22143946       2.25272251        7      -0.11507944      -0.02258719       0.14334147      -0.18594338       0.18145987      -0.16320533
Li       3.15379324       7.96518202       0.08972354        8       0.04623886       0.10143768       0.17598952      -0.05751979       0.09017872      -0.16639854
Li      -0.09647162       8.01609855       6.54235281        9       0.01989181       0.20227673       0.44395021       0.18003100       0.15876895       0.13236088
Li       3.18023391       3.95419178       0.01913471       10      -0.02731021      -0.12651606       0.28733364      -0.05775709       0.00354172       0.07393324
Li       0.01815393       4.05420813       6.52562792       11       0.07446779       0.10454476      -0.00234981       0.02984720      -0.03208537      -0.08285543
P        0.94106200       1.99588091       1.16487299       12      -0.04832153       0.46848028      -0.70928469       0.28135046       0.16854596      -0.39882699
P        5.23177444       5.99539570      11.82022767       13       0.45779226      -0.99016284      -0.06200057       0.28161237       0.55430800       0.31193218
P        4.01760041       6.01496669       5.36672810       14      -0.17520494       0.04091064      -0.24202556      -0.14433426       0.24503724       0.02678626
P        2.11803187       1.99256318       7.68558036       15      -0.43579619      -0.60641834      -0.00757616       0.09450598      -0.08947434       0.21444668
S        5.09343959       2.00701478       1.27990794       16       0.25490254      -0.26870213      -0.15245156      -0.33376473      -0.05532766       0.00759024
S        1.11557645       5.98389239      11.66574305       17       0.57090407      -0.34226147      -0.99928388      -0.34381133       0.15043437       0.07300055
S        1.96404952       5.98065679       5.23819412       18      -0.20520067       0.32899389       0.10393086       0.30221391       0.16838266       0.03573146
S        4.16135561       2.00919629       7.80812667       19      -0.22368162       0.10979923       0.15168495      -0.03738908      -0.21874464      -0.01326619
S        1.74285888       2.00637126      12.24778018       20       0.70551289      -0.27835767       0.47280897      -0.05007361       0.05617770       0.34585845
S        4.50732581       6.03716354       0.78654175       21       0.69257174       0.08565520      -0.33643333       0.12360597      -0.30690429      -0.26727998
S        4.83144153       6.03063680       7.31336859       22       0.69668339      -0.00548192      -0.50118423      -0.22143862      -0.19631663      -0.19829112
S        1.36754758       2.00563326       5.75442155       23      -0.01470890       0.03150922       0.20077245      -0.04926564      -0.11641670      -0.17161591
S        1.68048668       0.29812380       2.01875424       24       0.03142807      -0.75746410       0.35732636       0.02115152      -0.23903228       0.02822566
S        4.49736249       7.75806787      11.02809451       25       0.06820457       0.76796387      -0.07602990       0.06215365      -0.25871384      -0.00801738
S        4.77728039       7.75529576       4.54796355       26       0.16443171       0.09874546       0.12750168      -0.20469584      -0.13655031      -0.13903092
S        1.38890423       0.27827072       8.59105050       27      -0.10704460      -0.12300504       0.20457216      -0.02780765       0.22173837      -0.30485907
S        4.48382204       4.28399027      11.01628334       28      -0.25950497      -0.19625591      -0.22000554      -0.06592683      -0.16386200      -0.12453838
S        1.63793116       3.72850222       1.99793499       29      -0.37487278       0.05498477      -0.22475232       0.31030944       0.13641787      -0.02409813
S        1.41093053       3.73833537       8.50908973       30      -0.12300815       0.53424250       0.27633810      -0.04754791       0.01712395       0.08815600
S        4.72002831       4.32271866       4.47908424       31      -0.75123061       0.13935997       0.01259149       0.20363268      -0.24246278       0.15792441
