32
Lattice="6.17176593 0.0 0.0 0.0 8.01859859 0.0 0.0 0.0 13.03281824" Properties=species:S:1:pos:R:3:spacegroup_kinds:I:1:momenta:R:3:forces:R:3 spacegroup="P 1" unit_cell=conventional occupancy="_JSON {\"0\": {\"Li\": 1.0}, \"1\": {\"Li\": 1.0}, \"2\": {\"Li\": 1.0}, \"3\": {\"Li\": 1.0}, \"4\": {\"Li\": 1.0}, \"5\": {\"Li\": 1.0}, \"6\": {\"Li\": 1.0}, \"7\": {\"Li\": 1.0}, \"8\": {\"Li\": 1.0}, \"9\": {\"Li\": 1.0}, \"10\": {\"Li\": 1.0}, \"11\": {\"Li\": 1.0}, \"12\": {\"P\": 1.0}, \"13\": {\"P\": 1.0}, \"14\": {\"P\": 1.0}, \"15\": {\"P\": 1.0}, \"16\": {\"S\": 1.0}, \"17\": {\"S\": 1.0}, \"18\": {\"S\": 1.0}, \"19\": {\"S\": 1.0}, \"20\": {\"S\": 1.0}, \"21\": {\"S\": 1.0}, \"22\": {\"S\": 1.0}, \"23\": {\"S\": 1.0}, \"24\": {\"S\": 1.0}, \"25\": {\"S\": 1.0}, \"26\": {\"S\": 1.0}, \"27\": {\"S\": 1.0}, \"28\": {\"S\": 1.0}, \"29\": {\"S\": 1.0}, \"30\": {\"S\": 1.0}, \"31\": {\"S\": 1.0}}" energy=-140.3463134765625 free_energy=-140.3463134765625 stress="-0.0028886052314192057 -7.2706924925114436e-09 -5.833581395719989e-10 -7.2706924925114436e-09 -0.004072258714586496 -1.424975692998487e-09 -5.833581395719989e-10 -1.424975692998487e-09 -0.0025935862213373184" pbc="T T T"
Li       2.40166816       0.26892249       4.33377960        0       0.00000000       0.00000000       0.00000000      -0.01548971       0.00236069       0.00063441
Li       3.77009797       7.74967598       8.69903851        1       0.00000000       0.00000000       0.00000000       0.01548818      -0.00235823      -0.00063394
Li       5.48755104       7.74967603       2.18262942        2       0.00000000       0.00000000       0.00000000      -0.01549302      -0.00236161      -0.00063220
Li       0.68421472       0.26892249      10.85018873        3       0.00000000       0.00000000       0.00000000       0.01549080       0.00236013       0.00063224
Li       3.77009791       4.27822191       8.69903846        4       0.00000000       0.00000000       0.00000000       0.01548964       0.00235832      -0.00063357
Li       2.40166814       3.74037676       4.33377957        5       0.00000000       0.00000000       0.00000000      -0.01548939      -0.00235979       0.00063338
Li       0.68421474       3.74037683      10.85018872        6       0.00000000       0.00000000       0.00000000       0.01549090      -0.00236068       0.00063192
Li       5.48755104       4.27822190       2.18262937        7       0.00000000       0.00000000       0.00000000      -0.01549285       0.00236100      -0.00062967
Li       3.08588293       8.01859850       0.00000007        8       0.00000000       0.00000000       0.00000000      -0.00000182       0.00000074       0.00000030
Li       0.00000001       8.01859856       6.51640917        9       0.00000000       0.00000000       0.00000000       0.00000100       0.00000177      -0.00000127
Li       3.08588292       4.00929942       0.00000013       10       0.00000000       0.00000000       0.00000000      -0.00000102      -0.00000063      -0.00000124
Li       0.00000002       4.00929935       6.51640923       11       0.00000000       0.00000000       0.00000000       0.00000019      -0.00000201      -0.00000075
P        0.93932956       2.00464965       1.16793481       12       0.00000000       0.00000000       0.00000000      -0.00066863       0.00000005       0.03303410
P        5.23243634       6.01394891      11.86488437       13       0.00000000       0.00000000       0.00000000       0.00067072      -0.00000036      -0.03305908
P        4.02521218       6.01394902       5.34847531       14       0.00000000       0.00000000       0.00000000      -0.00065003      -0.00000018      -0.03306365
P        2.14655387       2.00464964       7.68434325       15       0.00000000       0.00000000       0.00000000       0.00065300      -0.00000228       0.03305277
S        5.07612353       2.00464966       1.30682509       16       0.00000000       0.00000000       0.00000000       0.00280268       0.00000003       0.01274949
S        1.09564247       6.01394898      11.72599295       17       0.00000000       0.00000000       0.00000000      -0.00280856       0.00000015      -0.01274587
S        1.99024099       6.01394894       5.20958385       18       0.00000000       0.00000000       0.00000000       0.00279237      -0.00000047      -0.01274474
S        4.18152511       2.00464961       7.82323415       19       0.00000000       0.00000000       0.00000000      -0.00279167       0.00000120       0.01274796
S        1.68772174       2.00464965      12.25093557       20       0.00000000       0.00000000       0.00000000       0.03396942      -0.00000036       0.02525117
S        4.48404413       6.01394895       0.78188261       21       0.00000000       0.00000000       0.00000000      -0.03397384       0.00000046      -0.02523415
S        4.77360474       6.01394894       7.29829156       22       0.00000000       0.00000000       0.00000000       0.03397270       0.00000020      -0.02523689
S        1.39816132       2.00464965       5.73452690       23       0.00000000       0.00000000       0.00000000      -0.03397311       0.00000049       0.02524167
S        1.68016703       0.28147976       2.00960393       24       0.00000000       0.00000000       0.00000000       0.02273261      -0.00259126      -0.01691966
S        4.49159896       7.73711937      11.02321403       25       0.00000000       0.00000000       0.00000000      -0.02272878       0.00258527       0.01692430
S        4.76604991       7.73711929       4.50680507       26       0.00000000       0.00000000       0.00000000       0.02272947       0.00258180       0.01692895
S        1.40571577       0.28147950       8.52601314       27       0.00000000       0.00000000       0.00000000      -0.02272798      -0.00258354      -0.01692792
S        4.49159894       4.29077844      11.02321403       28       0.00000000       0.00000000       0.00000000      -0.02272891      -0.00258593       0.01692264
S        1.68016709       3.72781955       2.00960386       29       0.00000000       0.00000000       0.00000000       0.02273282       0.00259101      -0.01692288
S        1.40571572       3.72781979       8.52601311       30       0.00000000       0.00000000       0.00000000      -0.02272701       0.00258659      -0.01692727
S        4.76604997       4.29077854       4.50680504       31       0.00000000       0.00000000       0.00000000       0.02272982      -0.00258248       0.01692943
32
Lattice="6.17176593 0.0 0.0 0.0 8.01859859 0.0 0.0 0.0 13.03281824" Properties=species:S:1:pos:R:3:spacegroup_kinds:I:1:momenta:R:3:forces:R:3 spacegroup="P 1" unit_cell=conventional occupancy="_JSON {\"0\": {\"Li\": 1.0}, \"1\": {\"Li\": 1.0}, \"2\": {\"Li\": 1.0}, \"3\": {\"Li\": 1.0}, \"4\": {\"Li\": 1.0}, \"5\": {\"Li\": 1.0}, \"6\": {\"Li\": 1.0}, \"7\": {\"Li\": 1.0}, \"8\": {\"Li\": 1.0}, \"9\": {\"Li\": 1.0}, \"10\": {\"Li\": 1.0}, \"11\": {\"Li\": 1.0}, \"12\": {\"P\": 1.0}, \"13\": {\"P\": 1.0}, \"14\": {\"P\": 1.0}, \"15\": {\"P\": 1.0}, \"16\": {\"S\": 1.0}, \"17\": {\"S\": 1.0}, \"18\": {\"S\": 1.0}, \"19\": {\"S\": 1.0}, \"20\": {\"S\": 1.0}, \"21\": {\"S\": 1.0}, \"22\": {\"S\": 1.0}, \"23\": {\"S\": 1.0}, \"24\": {\"S\": 1.0}, \"25\": {\"S\": 1.0}, \"26\": {\"S\": 1.0}, \"27\": {\"S\": 1.0}, \"28\": {\"S\": 1.0}, \"29\": {\"S\": 1.0}, \"30\": {\"S\": 1.0}, \"31\": {\"S\": 1.0}}" energy=-140.34617614746094 free_energy=-140.34617614746094 stress="-0.002909580711275339 4.4264070311328396e-05 -4.6809695959382225e-06 4.4264070311328396e-05 -0.0041197519749403 6.432236659748014e-06 -4.6809695959382225e-06 6.432236659748014e-06 -0.0025275524239987135" pbc="T T T"
Li       2.40540307       0.26785526       4.33346085        0       0.17791737      -0.07963078       0.04131543      -0.02289795       0.00653120       0.00436490
Li       3.77078218       7.75052546       8.69954458        1      -0.00247723       0.07782139       0.06928481       0.01163129      -0.00469240      -0.00181214
Li       5.48861904       7.74920299       2.18145279        2       0.02598868       0.04090988      -0.02523021      -0.01549619      -0.00178650       0.00122252
Li       0.68617958       0.26930504      10.84891019        3       0.07392052      -0.07506291       0.00974350       0.01274575       0.00126641       0.00565209
Li       3.77147717       4.27784814       8.69714086        4       0.10215239      -0.07194669      -0.14630892       0.01143166       0.00426635       0.00490004
Li       2.40028068       3.73983608       4.33423967        5       0.00030485      -0.06100535       0.00217488      -0.01319886      -0.00128891      -0.00181486
Li       0.68576898       3.74090053      10.85062429        6       0.13830994       0.02277067       0.00191359       0.01129888      -0.00121671       0.00055737
Li       5.48679198       4.27799334       2.18282781        7      -0.06046209      -0.02711390      -0.01657367      -0.01334831       0.00243436      -0.00096341
Li       3.08824093       8.01868240       0.00041022        8       0.10510706       0.03641745       0.03135024      -0.00356311       0.00356703       0.00074023
Li      -0.00146960       8.01665555       6.51575715        9      -0.09032417      -0.09449319       0.00503934       0.00847745       0.00476339       0.00356401
Li       3.08774783       4.01157031       0.00061132       10       0.08536248       0.09481404       0.08376825      -0.00600680      -0.00491471       0.00077517
Li      -0.00099613       4.00930922       6.51859273       11       0.00657914       0.00409818       0.10221505       0.00065874      -0.00150730      -0.00525280
P        0.93915330       2.00438859       1.16779994       12      -0.08755751      -0.01392783      -0.06732514       0.00651758       0.00611300       0.02303536
P        5.23180124       6.01397975      11.86460074       13      -0.07301241       0.07666820      -0.03273093       0.01348102      -0.02270871      -0.03144638
P        4.02511492       6.01382563       5.34839487       14      -0.00232257      -0.03211945       0.12367790       0.00189570      -0.00331535      -0.03019819
P        2.14764056       2.00507641       7.68501303       15       0.19819609       0.00571810       0.05630370      -0.04195453      -0.00401084       0.01308241
S        5.07573380       2.00502613       1.30623049       16      -0.06327608       0.06424453      -0.04663289       0.00613821      -0.00618347       0.01371577
S        1.09558726       6.01410864      11.72598510       17      -0.11833044      -0.03138485      -0.09361420      -0.01179214      -0.00027273      -0.01166682
S        1.99053665       6.01265980       5.21043420       18       0.02331424      -0.30655949       0.09381144      -0.00124571       0.00855281      -0.01491205
S        4.18054776       2.00482220       7.82279440       19      -0.36280111       0.05551949      -0.09468543       0.02646434      -0.00220800       0.01491683
S        1.68793872       2.00533266      12.25012695       20       0.03699926       0.17296868      -0.20839524       0.03249063      -0.00511971       0.03776053
S        4.48358714       6.01340552       0.78217683       21      -0.12358700      -0.15252031       0.07739516      -0.03119780       0.00405606      -0.02838160
S        4.77312101       6.01412133       7.29873648       22      -0.11397316       0.10104542       0.10216958       0.03493522       0.00086096      -0.02746604
S        1.39811717       2.00558289       5.73401219       23      -0.04567127       0.22994631      -0.07058307      -0.02878559      -0.00955390       0.04075900
S        1.68144594       0.28208507       2.01030711       24       0.38338486       0.04830665       0.10267504       0.01777823      -0.00207469      -0.02184731
S        4.49209797       7.73585283      11.02270817       25       0.08385194      -0.24151853      -0.12628680      -0.02801660       0.01853883       0.01336624
S        4.76728302       7.73671358       4.50713956       26       0.32898604      -0.09170977       0.13354984       0.02177181       0.00235599       0.01335318
S        1.40466645       0.28257909       8.52710650       27      -0.13535940       0.34043003       0.35642408      -0.01561047      -0.00318750      -0.02601745
S        4.49032485       4.28997435      11.02341401       28      -0.15597888      -0.27445973       0.06623403      -0.01371078       0.00645988       0.01733181
S        1.67974457       3.72796719       2.00890300       29      -0.20351883       0.01157174      -0.26745876       0.02224829       0.00241855      -0.01448322
S        1.40540289       3.72758240       8.52602969       30      -0.07873555       0.02077734      -0.18254232      -0.01906163       0.00896034      -0.01254149
S        4.76553661       4.29118194       4.50635739       31      -0.05298716       0.14942467      -0.08067826       0.02592150      -0.00710365       0.01970653
32
Lattice="6.17176593 0.0 0.0 0.0 8.01859859 0.0 0.0 0.0 13.03281824" Properties=species:S:1:pos:R:3:spacegroup_kinds:I:1:momenta:R:3:forces:R:3 spacegroup="P 1" unit_cell=conventional occupancy="_JSON {\"0\": {\"Li\": 1.0}, \"1\": {\"Li\": 1.0}, \"2\": {\"Li\": 1.0}, \"3\": {\"Li\": 1.0}, \"4\": {\"Li\": 1.0}, \"5\": {\"Li\": 1.0}, \"6\": {\"Li\": 1.0}, \"7\": {\"Li\": 1.0}, \"8\": {\"Li\": 1.0}, \"9\": {\"Li\": 1.0}, \"10\": {\"Li\": 1.0}, \"11\": {\"Li\": 1.0}, \"12\": {\"P\": 1.0}, \"13\": {\"P\": 1.0}, \"14\": {\"P\": 1.0}, \"15\": {\"P\": 1.0}, \"16\": {\"S\": 1.0}, \"17\": {\"S\": 1.0}, \"18\": {\"S\": 1.0}, \"19\": {\"S\": 1.0}, \"20\": {\"S\": 1.0}, \"21\": {\"S\": 1.0}, \"22\": {\"S\": 1.0}, \"23\": {\"S\": 1.0}, \"24\": {\"S\": 1.0}, \"25\": {\"S\": 1.0}, \"26\": {\"S\": 1.0}, \"27\": {\"S\": 1.0}, \"28\": {\"S\": 1.0}, \"29\": {\"S\": 1.0}, \"30\": {\"S\": 1.0}, \"31\": {\"S\": 1.0}}" energy=-140.3446044921875 free_energy=-140.3446044921875 stress="-0.003154164645820856 8.832637831801549e-05 -4.708245978690684e-05 8.832637831801549e-05 -0.00413857726380229 -8.302549758809619e-06 -4.708245978690684e-05 -8.302549758809619e-06 -0.002341628074645996" pbc="T T T"
Li       2.41365565       0.26413966       4.33303894        0       0.27118817      -0.09190216      -0.01350545      -0.04380974       0.01772847       0.00930093
Li       3.77186501       7.75425860       8.70038039        1       0.08565279       0.17053384       0.05317308       0.00614436      -0.01413659      -0.00109997
Li       5.48613789       7.74999636       2.18017032        2      -0.10245992       0.04040428       0.01704873      -0.00699334      -0.00298005       0.00371558
Li       0.69064839       0.26618881      10.84991770        3       0.16339229      -0.09201842       0.02618073       0.00685357       0.00826548       0.00882294
Li       3.77333730       4.27601534       8.69098997        4       0.01729911      -0.02522084      -0.14653663       0.00638583       0.01047448       0.02228661
Li       2.40123168       3.73885686       4.33157041        5       0.08365112       0.02459946      -0.10846568      -0.01522364      -0.00220959       0.00165618
Li       0.69310850       3.74057834      10.85105020        6       0.21008417       0.02454195      -0.00340812      -0.00446460       0.00353206      -0.00284864
Li       5.48564290       4.27716322       2.18161528        7      -0.00112984      -0.04342124       0.00899702      -0.01201697       0.00712039       0.00120914
Li       3.09282590       8.01582166       0.00006251        8       0.14418409      -0.20213122       0.01760043      -0.01448422       0.01326323       0.00479644
Li      -0.00503879       8.01423568       6.51497688        9      -0.10248401      -0.00520268      -0.07303464       0.02438058       0.01311601       0.01115168
Li       3.08941564       4.01389779       0.00449936       10       0.05913521      -0.00815705       0.10085618      -0.00742897      -0.01041685      -0.00834719
Li      -0.00055437       4.00822202       6.52210206       11       0.02603616      -0.00742309       0.15282949       0.00035790       0.00033277      -0.01602999
P        0.93764345       2.00406348       1.16721910       12      -0.33829617      -0.02077330      -0.03854681       0.04867528      -0.01482838      -0.00250421
P        5.23180409       6.01450013      11.86377895       13       0.01317063      -0.01462178      -0.16629469      -0.00741062      -0.07087287      -0.03065601
P        4.02581137       6.01374106       5.34956119       14       0.20625025      -0.01233348       0.26221757      -0.00351769       0.00229012      -0.03148720
P        2.14954548       2.00487036       7.68576682       15       0.19800845      -0.02690538       0.20683308      -0.13655576       0.00552310      -0.00807925
S        5.07527467       2.00606447       1.30523110       16      -0.25572955       0.21122907      -0.10288669      -0.00624997      -0.01695575       0.01508191
S        1.09390633       6.01453439      11.72562216       17      -0.31438928       0.11217912      -0.06214289       0.01498096      -0.00368428      -0.00743216
S        1.99150790       6.00965665       5.21177463       18       0.10013808      -0.41400048       0.28321620      -0.00138535       0.02280811      -0.01650701
S        4.17781676       2.00463876       7.82194272       19      -0.28682499      -0.14440056      -0.22597173       0.09500666      -0.00518676       0.01574159
S        1.68827669       2.00578489      12.24749384       20       0.07579534      -0.03297424      -0.40838990       0.02717512      -0.01429329       0.07689379
S        4.48276446       6.01279244       0.78238621       21      -0.08257179      -0.21723608      -0.07039473      -0.02585220       0.00926860      -0.03206074
S        4.77269441       6.01513221       7.30084011       22      -0.05802908       0.09273642       0.23405159       0.03689297       0.00172252      -0.03819001
S        1.39690302       2.00725102       5.73379915       23      -0.10952742       0.17684047      -0.01634844      -0.01479317      -0.02915526       0.05614672
S        1.68389590       0.28161915       2.01059819       24       0.35509443      -0.02466740       0.04032691      -0.00510212       0.01872361      -0.03621185
S        4.49333003       7.73467608      11.02217160       25       0.28820232      -0.06679800       0.03355501      -0.03591679       0.04229299       0.00649643
S        4.76887666       7.73752891       4.50794417       26       0.15002509       0.14359582       0.00034982       0.02139466      -0.01086196       0.01688122
S        1.40289367       0.28462331       8.53054823       27      -0.23138947       0.30299771       0.51081352      -0.00582010      -0.00382940      -0.04527018
S        4.48976929       4.28833863      11.02402803       28      -0.10704282      -0.21108936       0.03073144      -0.00005141       0.02503528       0.01812487
S        1.67758354       3.72774539       2.00743519       29      -0.32807685       0.08430570      -0.08477263       0.02621973       0.00974868      -0.00780867
S        1.40490040       3.72835389       8.52489911       30       0.00947407       0.01865690      -0.27748141      -0.00717887       0.00510866      -0.00792791
S        4.76503345       4.29267709       4.50568071       31      -0.13883055       0.25865601      -0.18060035       0.03978793      -0.01694353       0.02415481
32
Lattice="6.17176593 0.0 0.0 0.0 8.01859859 0.0 0.0 0.0 13.03281824" Properties=species:S:1:pos:R:3:spacegroup_kinds:I:1:momenta:R:3:forces:R:3 spacegroup="P 1" unit_cell=conventional occupancy="_JSON {\"0\": {\"Li\": 1.0}, \"1\": {\"Li\": 1.0}, \"2\": {\"Li\": 1.0}, \"3\": {\"Li\": 1.0}, \"4\": {\"Li\": 1.0}, \"5\": {\"Li\": 1.0}, \"6\": {\"Li\": 1.0}, \"7\": {\"Li\": 1.0}, \"8\": {\"Li\": 1.0}, \"9\": {\"Li\": 1.0}, \"10\": {\"Li\": 1.0}, \"11\": {\"Li\": 1.0}, \"12\": {\"P\": 1.0}, \"13\": {\"P\": 1.0}, \"14\": {\"P\": 1.0}, \"15\": {\"P\": 1.0}, \"16\": {\"S\": 1.0}, \"17\": {\"S\": 1.0}, \"18\": {\"S\": 1.0}, \"19\": {\"S\": 1.0}, \"20\": {\"S\": 1.0}, \"21\": {\"S\": 1.0}, \"22\": {\"S\": 1.0}, \"23\": {\"S\": 1.0}, \"24\": {\"S\": 1.0}, \"25\": {\"S\": 1.0}, \"26\": {\"S\": 1.0}, \"27\": {\"S\": 1.0}, \"28\": {\"S\": 1.0}, \"29\": {\"S\": 1.0}, \"30\": {\"S\": 1.0}, \"31\": {\"S\": 1.0}}" energy=-140.34046936035156 free_energy=-140.34046936035156 stress="-0.003343016840517521 0.00015271309530362487 -0.00012553195119835436 0.00015271309530362487 -0.00424630893394351 -2.5376501071150415e-05 -0.00012553195119835436 -2.5376501071150415e-05 -0.0021311230957508087" pbc="T T T"
Li       2.42291113       0.26001734       4.33269429        0       0.17610561      -0.15992759      -0.04156616      -0.06925723       0.03025321       0.01645681
Li       3.77425625       7.75907525       8.70082125        1       0.07928529       0.12483148      -0.02888900       0.00173465      -0.02501416       0.00433259
Li       5.48446281       7.75149592       2.17959443        2      -0.03919376       0.05510008      -0.08375470      -0.00202031      -0.00719324       0.00382996
Li       0.69623970       0.26465957      10.84870503        3       0.14117162      -0.00422565      -0.02604371      -0.00129349       0.01259083       0.01859676
Li       3.77499416       4.27349885       8.68438983        4       0.07449671      -0.10443647      -0.23138102       0.00441410       0.01676066       0.03962400
Li       2.40390929       3.74130578       4.32817785        5       0.05654691       0.04693399      -0.12996991      -0.02405743      -0.01203211       0.00916187
Li       0.70228448       3.74297363      10.85153694        6       0.22189872       0.07217461       0.06373699      -0.02018552       0.00293928      -0.00692854
Li       5.48593009       4.27555516       2.18142528        7       0.04887736      -0.08064011       0.03302926      -0.01439568       0.01519422       0.00096711
Li       3.09807484       8.01055614      -0.00129988        8       0.18194535      -0.13249857      -0.02736241      -0.03042345       0.02551431       0.01478400
Li      -0.01058381       8.01394043       6.51298712        9      -0.15859600      -0.00602034      -0.09225715       0.04478727       0.02553589       0.01955334
Li       3.09512269       4.01411545       0.00692755       10       0.22445512       0.00594927       0.02225672      -0.01236215      -0.01869823      -0.00886230
Li      -0.00031258       4.00743008       6.52628944       11      -0.03089228      -0.00144724       0.08265383       0.00004823      -0.00181403      -0.03622035
P        0.93607165       2.00357889       1.16692211       12      -0.16367298      -0.03724488       0.01709121       0.07525671      -0.02374873      -0.04111357
P        5.23203210       6.01588622      11.86155413       13       0.00843690       0.26098327      -0.46221637      -0.03366559      -0.12740412       0.00376243
P        4.02703793       6.01368098       5.35279840       14       0.15450887       0.05968152       0.50652899      -0.02879571      -0.00365858      -0.08308534
P        2.15040003       2.00457594       7.68896741       15       0.06203922      -0.01667716       0.42581191      -0.20520709      -0.00247412      -0.08532654
S        5.07332054       2.00714437       1.30441616       16      -0.28269958       0.15103349       0.02003944       0.00100690      -0.02785482       0.01456843
S        1.09117975       6.01475714      11.72400920       17      -0.36860522       0.01128939      -0.27901963       0.06388686      -0.00126751      -0.00365593
S        1.99166989       6.00630420       5.21441443       18       0.07568833      -0.60637172       0.23237180       0.01626848       0.04131344      -0.01347601
S        4.17605941       2.00337389       7.82033670       19      -0.14221414      -0.26463211      -0.20689365       0.14039186      -0.00345461       0.02077190
S        1.68852596       2.00552714      12.24379889       20       0.04900544      -0.06195076      -0.52693076       0.01866887      -0.01925087       0.12945871
S        4.48187676       6.01191783       0.78236316       21      -0.07017593       0.03884381       0.05069251      -0.01474266       0.01290180      -0.04245804
S        4.77331724       6.01605523       7.30181670       22       0.19497343       0.07876776       0.24898082       0.04458342       0.00215739      -0.01811166
S        1.39475080       2.00872015       5.73347129       23      -0.16486977       0.19796850      -0.07858201       0.00969316      -0.04817280       0.09542061
S        1.68597546       0.28209817       2.01106607       24       0.20935165       0.09841430       0.02208824      -0.02242751       0.02838413      -0.04913821
S        4.49586682       7.73437348      11.02406202       25       0.23969673       0.02868683       0.33323743      -0.05483798       0.08538047      -0.02436921
S        4.76968246       7.73855524       4.50849178       26      -0.03965599       0.13457779       0.19057746       0.02105107      -0.03264549       0.02630038
S        1.40161546       0.28625572       8.53540297       27      -0.22383607       0.09909322       0.66425235       0.00117881      -0.00886513      -0.06590833
S        4.49023513       4.28762302      11.02436193       28       0.05013241       0.03545778       0.03412734       0.00668533       0.03262092       0.00597017
S        1.67508562       3.72722435       2.00668288       29      -0.29083854      -0.14275464      -0.12728910       0.03366917       0.01538413      -0.01187858
S        1.40463758       3.72897393       8.52157487       30      -0.10486798       0.19186241      -0.41502724      -0.00274178       0.02292061       0.02190303
S        4.76359484       4.29315113       4.50405474       31      -0.16849744      -0.07282228      -0.19029347       0.05308880      -0.00630276       0.04507066
32
Lattice="6.17176593 0.0 0.0 0.0 8.01859859 0.0 0.0 0.0 13.03281824" Properties=species:S:1:pos:R:3:spacegroup_kinds:I:1:momenta:R:3:forces:R:3 spacegroup="P 1" unit_cell=conventional occupancy="_JSON {\"0\": {\"Li\": 1.0}, \"1\": {\"Li\": 1.0}, \"2\": {\"Li\": 1.0}, \"3\": {\"Li\": 1.0}, \"4\": {\"Li\": 1.0}, \"5\": {\"Li\": 1.0}, \"6\": {\"Li\": 1.0}, \"7\": {\"Li\": 1.0}, \"8\": {\"Li\": 1.0}, \"9\": {\"Li\": 1.0}, \"10\": {\"Li\": 1.0}, \"11\": {\"Li\": 1.0}, \"12\": {\"P\": 1.0}, \"13\": {\"P\": 1.0}, \"14\": {\"P\": 1.0}, \"15\": {\"P\": 1.0}, \"16\": {\"S\": 1.0}, \"17\": {\"S\": 1.0}, \"18\": {\"S\": 1.0}, \"19\": {\"S\": 1.0}, \"20\": {\"S\": 1.0}, \"21\": {\"S\": 1.0}, \"22\": {\"S\": 1.0}, \"23\": {\"S\": 1.0}, \"24\": {\"S\": 1.0}, \"25\": {\"S\": 1.0}, \"26\": {\"S\": 1.0}, \"27\": {\"S\": 1.0}, \"28\": {\"S\": 1.0}, \"29\": {\"S\": 1.0}, \"30\": {\"S\": 1.0}, \"31\": {\"S\": 1.0}}" energy=-140.3326416015625 free_energy=-140.3326416015625 stress="-0.00358963361941278 0.0002390006702626124 -0.0002104353770846501 0.0002390006702626124 -0.004431352950632572 -2.2821401216788217e-05 -0.0002104353770846501 -2.2821401216788217e-05 -0.0018116254359483719" pbc="T T T"
Li       2.42904098       0.25404225       4.33059543        0       0.15894434      -0.18311588      -0.02029670      -0.09156781       0.04469217       0.02748462
Li       3.77792652       7.76040755       8.69930854        1       0.08792957      -0.08376496      -0.01312354      -0.00872660      -0.02744290       0.01478457
Li       5.48132807       7.75439320       2.17560376        2      -0.09224047       0.02582371      -0.10582178       0.00403235      -0.01321097       0.01118610
Li       0.70306001       0.26349007      10.84571684        3       0.24138734      -0.01792954      -0.08426385      -0.00997939       0.01717162       0.03203160
Li       3.77555653       4.26925256       8.67661573        4       0.05153798      -0.17301878      -0.13514740       0.00803291       0.02670008       0.05802821
Li       2.40570822       3.73959251       4.32490671        5      -0.00321063      -0.14167364      -0.09697045      -0.02692068      -0.01589104       0.01402505
Li       0.71142883       3.74703493      10.85076555        6       0.28049152       0.12519108      -0.07722025      -0.03499477      -0.00109140      -0.00573336
Li       5.48860145       4.27242935       2.18503564        7       0.07464731      -0.10017485       0.11693371      -0.02205731       0.03208318      -0.00790951
Li       3.10460293       8.00523563      -0.00028738        8       0.17888436      -0.14611063       0.10351259      -0.04763993       0.03860389       0.02056861
Li      -0.01814468       8.01250135       6.50943481        9      -0.27318904      -0.10801901      -0.07483467       0.07158052       0.04164446       0.03567456
Li       3.10400470       4.01394439       0.00826915       10       0.25846762       0.00395504       0.12601603      -0.02125023      -0.02744139      -0.00247878
Li      -0.00135696       4.00705137       6.52671844       11      -0.07316158      -0.02521484      -0.06747221       0.00365996      -0.00640151      -0.04849094
P        0.93456136       2.00236681       1.16756428       12      -0.15464410      -0.28753763       0.07478333       0.10914250      -0.01658588      -0.10392646
P        5.23210667       6.01860879      11.85728635       13      -0.04157607       0.45240532      -0.52349803      -0.04967058      -0.19433413       0.08247072
P        4.02720782       6.01485225       5.35614714       14       0.01695423       0.17032282       0.41747582      -0.02681843      -0.05262245      -0.12504558
P        2.15071014       2.00535783       7.69278145       15      -0.06508411       0.25486997       0.56643624      -0.27128667      -0.05584916      -0.15981075
S        5.07177201       2.00867031       1.30434316       16      -0.14646793       0.18025686      -0.05374786       0.00063635      -0.03776348       0.01270979