32
Lattice="6.17176593 0.0 0.0 0.0 8.01859859 0.0 0.0 0.0 13.03281824" Properties=species:S:1:pos:R:3:spacegroup_kinds:I:1:forces:R:3 spacegroup="P 1" unit_cell=conventional occupancy="_JSON {\"0\": {\"Li\": 1.0}, \"1\": {\"Li\": 1.0}, \"2\": {\"Li\": 1.0}, \"3\": {\"Li\": 1.0}, \"4\": {\"Li\": 1.0}, \"5\": {\"Li\": 1.0}, \"6\": {\"Li\": 1.0}, \"7\": {\"Li\": 1.0}, \"8\": {\"Li\": 1.0}, \"9\": {\"Li\": 1.0}, \"10\": {\"Li\": 1.0}, \"11\": {\"Li\": 1.0}, \"12\": {\"P\": 1.0}, \"13\": {\"P\": 1.0}, \"14\": {\"P\": 1.0}, \"15\": {\"P\": 1.0}, \"16\": {\"S\": 1.0}, \"17\": {\"S\": 1.0}, \"18\": {\"S\": 1.0}, \"19\": {\"S\": 1.0}, \"20\": {\"S\": 1.0}, \"21\": {\"S\": 1.0}, \"22\": {\"S\": 1.0}, \"23\": {\"S\": 1.0}, \"24\": {\"S\": 1.0}, \"25\": {\"S\": 1.0}, \"26\": {\"S\": 1.0}, \"27\": {\"S\": 1.0}, \"28\": {\"S\": 1.0}, \"29\": {\"S\": 1.0}, \"30\": {\"S\": 1.0}, \"31\": {\"S\": 1.0}}" energy=-140.3463134765625 free_energy=-140.3463134765625 stress="-0.0028886052314192057 -7.2706924925114436e-09 -5.833581395719989e-10 -7.2706924925114436e-09 -0.004072258714586496 -1.424975692998487e-09 -5.833581395719989e-10 -1.424975692998487e-09 -0.0025935862213373184" pbc="T T T"
Li       2.40166816       0.26892249       4.33377960        0      -0.01548971       0.00236069       0.00063441
Li       3.77009797       7.74967598       8.69903851        1       0.01548818      -0.00235823      -0.00063394
Li       5.48755104       7.74967603       2.18262942        2      -0.01549302      -0.00236161      -0.00063220
Li       0.68421472       0.26892249      10.85018873        3       0.01549080       0.00236013       0.00063224
Li       3.77009791       4.27822191       8.69903846        4       0.01548964       0.00235832      -0.00063357
Li       2.40166814       3.74037676       4.33377957        5      -0.01548939      -0.00235979       0.00063338
Li       0.68421474       3.74037683      10.85018872        6       0.01549090      -0.00236068       0.00063192
Li       5.48755104       4.27822190       2.18262937        7      -0.01549285       0.00236100      -0.00062967
Li       3.08588293       8.01859850       0.00000007        8      -0.00000182       0.00000074       0.00000030
Li       0.00000001       8.01859856       6.51640917        9       0.00000100       0.00000177      -0.00000127
Li       3.08588292       4.00929942       0.00000013       10      -0.00000102      -0.00000063      -0.00000124
Li       0.00000002       4.00929935       6.51640923       11       0.00000019      -0.00000201      -0.00000075
P        0.93932956       2.00464965       1.16793481       12      -0.00066863       0.00000005       0.03303410
P        5.23243634       6.01394891      11.86488437       13       0.00067072      -0.00000036      -0.03305908
P        4.02521218       6.01394902       5.34847531       14      -0.00065003      -0.00000018      -0.03306365
P        2.14655387       2.00464964       7.68434325       15       0.00065300      -0.00000228       0.03305277
S        5.07612353       2.00464966       1.30682509       16       0.00280268       0.00000003       0.01274949
S        1.09564247       6.01394898      11.72599295       17      -0.00280856       0.00000015      -0.01274587
S        1.99024099       6.01394894       5.20958385       18       0.00279237      -0.00000047      -0.01274474
S        4.18152511       2.00464961       7.82323415       19      -0.00279167       0.00000120       0.01274796
S        1.68772174       2.00464965      12.25093557       20       0.03396942      -0.00000036       0.02525117
S        4.48404413       6.01394895       0.78188261       21      -0.03397384       0.00000046      -0.02523415
S        4.77360474       6.01394894       7.29829156       22       0.03397270       0.00000020      -0.02523689
S        1.39816132       2.00464965       5.73452690       23      -0.03397311       0.00000049       0.02524167
S        1.68016703       0.28147976       2.00960393       24       0.02273261      -0.00259126      -0.01691966
S        4.49159896       7.73711937      11.02321403       25      -0.02272878       0.00258527       0.01692430
S        4.76604991       7.73711929       4.50680507       26       0.02272947       0.00258180       0.01692895
S        1.40571577       0.28147950       8.52601314       27      -0.02272798      -0.00258354      -0.01692792
S        4.49159894       4.29077844      11.02321403       28      -0.02272891      -0.00258593       0.01692264
S        1.68016709       3.72781955       2.00960386       29       0.02273282       0.00259101      -0.01692288
S        1.40571572       3.72781979       8.52601311       30      -0.02272701       0.00258659      -0.01692727
S        4.76604997       4.29077854       4.50680504       31       0.02272982      -0.00258248       0.01692943
