4
Lattice="3.128588 0.0 0.0 -1.5642939988088433 2.709436998432005 0.0 0.0 0.0 5.016955" Properties=species:S:1:pos:R:3:spacegroup_kinds:I:1:forces:R:3 spacegroup="P 1" unit_cell=conventional occupancy="_JSON {\"0\": {\"Al\": 1}, \"1\": {\"Al\": 1}, \"2\": {\"N\": 1}, \"3\": {\"N\": 1}}" energy=-29.673715591430664 free_energy=-29.673715591430664 stress="-0.002225452335551381 -1.4469011375695118e-06 2.6780272222026724e-08 -1.4469011375695118e-06 -0.0022275533992797136 -4.5850789831547445e-08 2.6780272222026724e-08 -4.5850789831547445e-08 -0.005453614052385092" pbc="T T T"
Al       1.56429556       0.90314476       2.50490041        0      -0.00003710       0.00002019       0.00553247
Al      -0.00000156       1.80629224       5.01337791        1       0.00003443      -0.00001927       0.00552394
N        1.56429556       0.90314476       4.41849749        2      -0.00003622       0.00001954      -0.00553059
N       -0.00000156       1.80629224       1.91001999        3       0.00003886      -0.00002045      -0.00552607
