13
Lattice="7.26870274 0.0 0.0 3.634351370000001 6.294881225397555 0.0 3.634351370000001 2.0982937417991856 5.934870934989993" Properties=species:S:1:pos:R:3:spacegroup_kinds:I:1:forces:R:3 spacegroup="P 1" unit_cell=conventional occupancy="_JSON {\"0\": {\"Li\": 1}, \"1\": {\"Li\": 1}, \"2\": {\"Li\": 1}, \"3\": {\"Li\": 1}, \"4\": {\"Li\": 1}, \"5\": {\"Li\": 1}, \"6\": {\"P\": 1}, \"7\": {\"S\": 1}, \"8\": {\"S\": 1}, \"9\": {\"S\": 1}, \"10\": {\"S\": 1}, \"11\": {\"S\": 1}, \"12\": {\"Cl\": 1}}" energy=-53.3634147644043 free_energy=-53.3634147644043 stress="-0.0007942102965898812 -2.3740660992643825e-07 -1.4976188822402037e-07 -2.3740660992643825e-07 -0.0007939508650451899 -1.0749110401775397e-07 -1.4976188822402037e-07 -1.0749110401775397e-07 -0.0007939119241200387" pbc="T T T"
Li       9.25387995       7.24703237       3.10460814        0       0.00422606      -0.00243469       0.00344808
Li      12.55222827       5.34273008       5.79769826        1      -0.00421050       0.00243322      -0.00344113
Li       9.25387995       5.34273008       5.79769826        2       0.00422508       0.00243878      -0.00344718
Li      12.55222827       7.24703237       3.10460814        3      -0.00421165      -0.00243061       0.00344087
Li      10.90305411       4.39057894       3.10460814        4       0.00000248       0.00487558       0.00344779
Li      10.90305411       8.19918351       5.79769826        5       0.00000218      -0.00486390      -0.00344187
P        7.26870274       4.19658748       2.96743547        6       0.00008592       0.00004589       0.00003635
S        7.26870637       6.13578650       2.28182731        7      -0.00001837      -0.01090932       0.00384808
S        8.94810016       3.22699113       2.28182731        8      -0.00945953       0.00544126       0.00384763
S        5.58931258       3.22699113       2.28182731        9       0.00937732       0.00541320       0.00382989
S        7.26870637       4.19658958       5.02426588       10      -0.00001880      -0.00000929      -0.01156929
S       10.90305411       6.29488123       4.45115320       11      -0.00000174      -0.00000152      -0.00000000
Cl       0.00000000       0.00000000       0.00000000       12       0.00000154       0.00000144       0.00000077
