32
Lattice="6.17176593 0.0 0.0 0.0 8.01859859 0.0 0.0 0.0 13.03281824" Properties=species:S:1:pos:R:3:spacegroup_kinds:I:1:forces:R:3 spacegroup="P 1" unit_cell=conventional occupancy="_JSON {\"0\": {\"Li\": 1}, \"1\": {\"Li\": 1}, \"2\": {\"Li\": 1}, \"3\": {\"Li\": 1}, \"4\": {\"Li\": 1}, \"5\": {\"Li\": 1}, \"6\": {\"Li\": 1}, \"7\": {\"Li\": 1}, \"8\": {\"Li\": 1}, \"9\": {\"Li\": 1}, \"10\": {\"Li\": 1}, \"11\": {\"Li\": 1}, \"12\": {\"P\": 1}, \"13\": {\"P\": 1}, \"14\": {\"P\": 1}, \"15\": {\"P\": 1}, \"16\": {\"S\": 1}, \"17\": {\"S\": 1}, \"18\": {\"S\": 1}, \"19\": {\"S\": 1}, \"20\": {\"S\": 1}, \"21\": {\"S\": 1}, \"22\": {\"S\": 1}, \"23\": {\"S\": 1}, \"24\": {\"S\": 1}, \"25\": {\"S\": 1}, \"26\": {\"S\": 1}, \"27\": {\"S\": 1}, \"28\": {\"S\": 1}, \"29\": {\"S\": 1}, \"30\": {\"S\": 1}, \"31\": {\"S\": 1}}" energy=-140.3463134765625 free_energy=-140.3463134765625 stress="-0.002888641320168972 -3.5539093889980222e-09 -1.221586565236521e-08 -3.5539093889980222e-09 -0.004072276409715414 9.570096715094678e-09 -1.221586565236521e-08 9.570096715094678e-09 -0.0025935976300388575" pbc="T T T"
Li       2.40166817       0.26892253       4.33377961        0      -0.01548943       0.00236022       0.00063533
Li       3.77009793       7.74967598       8.69903848        1       0.01548950      -0.00235999      -0.00063459
Li       5.48755108       7.74967607       2.18262938        2      -0.01549393      -0.00236052      -0.00063244
Li       0.68421477       0.26892248      10.85018871        3       0.01549198       0.00236177       0.00063159
Li       3.77009793       4.27822191       8.69903840        4       0.01548849       0.00235862      -0.00063502
Li       2.40166818       3.74037680       4.33377960        5      -0.01548927      -0.00235965       0.00063420
Li       0.68421479       3.74037680      10.85018871        6       0.01549137      -0.00236151       0.00063172
Li       5.48755102       4.27822186       2.18262938        7      -0.01549205       0.00236003      -0.00063004
Li       3.08588287      -0.00000017       0.00000009        8      -0.00000001       0.00000030      -0.00000064
Li       0.00000005      -0.00000006       6.51640917        9       0.00000074      -0.00000021       0.00000052
Li       3.08588295       4.00929945       0.00000009       10      -0.00000231      -0.00000121       0.00000263
Li       0.00000003       4.00929931       6.51640915       11      -0.00000014      -0.00000224      -0.00000101
P        0.93932954       2.00464935       1.16793468       12      -0.00066966       0.00001370       0.03303288
P        5.23243627       6.01394884      11.86488426       13       0.00066682       0.00000645      -0.03305852
P        4.02521221       6.01394892       5.34847532       14      -0.00065143       0.00000232      -0.03306346
P        2.14655379       2.00464966       7.68434320       15       0.00065471       0.00000048       0.03305401
S        5.07612363       2.00464964       1.30682508       16       0.00280167       0.00000076       0.01274934
S        1.09564229       6.01394882      11.72599293       17      -0.00280164       0.00000100      -0.01274659
S        1.99024097       6.01394889       5.20958391       18       0.00279325       0.00000068      -0.01274546
S        4.18152505       2.00464966       7.82323419       19      -0.00279384      -0.00000113       0.01274825
S        1.68772171       2.00464969      12.25093567       20       0.03397014      -0.00000115       0.02525057
S        4.48404415       6.01394890       0.78188252       21      -0.03397303      -0.00000077      -0.02523687
S        4.77360471       6.01394892       7.29829160       22       0.03397223       0.00000173      -0.02523650
S        1.39816136       2.00464968       5.73452697       23      -0.03397308      -0.00000020       0.02524065
S        1.68016697       0.28147991       2.00960384       24       0.02273746      -0.00260013      -0.01691733
S        4.49159903       7.73711923      11.02321413       25      -0.02272840       0.00258553       0.01692386
S        4.76604989       7.73711923       4.50680507       26       0.02272841       0.00258278       0.01692815
S        1.40571577       0.28147959       8.52601308       27      -0.02272733      -0.00258546      -0.01692723
S        4.49159902       4.29077893      11.02321426       28      -0.02273396      -0.00259186       0.01692418
S        1.68016708       3.72781968       2.00960397       29       0.02273135       0.00258660      -0.01692321
S        1.40571581       3.72781971       8.52601307       30      -0.02272716       0.00258514      -0.01692751
S        4.76604993       4.29077865       4.50680508       31       0.02272864      -0.00258191       0.01692861
