56
Lattice="10.7619164 0.0 0.0 -9.665296305262016 4.732958053065482 0.0 -0.5483100463354086 -2.3664790220718444 10.484177494289693" Properties=species:S:1:pos:R:3:spacegroup_kinds:I:1:momenta:R:3:forces:R:3 spacegroup="P 1" unit_cell=conventional occupancy="_JSON {\"0\": {\"H\": 1}, \"1\": {\"H\": 1}, \"2\": {\"H\": 1}, \"3\": {\"H\": 1}, \"4\": {\"H\": 1}, \"5\": {\"H\": 1}, \"6\": {\"H\": 1}, \"7\": {\"H\": 1}, \"8\": {\"H\": 1}, \"9\": {\"H\": 1}, \"10\": {\"H\": 1}, \"11\": {\"H\": 1}, \"12\": {\"H\": 1}, \"13\": {\"H\": 1}, \"14\": {\"H\": 1}, \"15\": {\"H\": 1}, \"16\": {\"H\": 1}, \"17\": {\"H\": 1}, \"18\": {\"H\": 1}, \"19\": {\"H\": 1}, \"20\": {\"H\": 1}, \"21\": {\"H\": 1}, \"22\": {\"H\": 1}, \"23\": {\"H\": 1}, \"24\": {\"H\": 1}, \"25\": {\"H\": 1}, \"26\": {\"H\": 1}, \"27\": {\"H\": 1}, \"28\": {\"H\": 1}, \"29\": {\"H\": 1}, \"30\": {\"H\": 1}, \"31\": {\"H\": 1}, \"32\": {\"C\": 1}, \"33\": {\"C\": 1}, \"34\": {\"C\": 1}, \"35\": {\"C\": 1}, \"36\": {\"C\": 1}, \"37\": {\"C\": 1}, \"38\": {\"C\": 1}, \"39\": {\"C\": 1}, \"40\": {\"C\": 1}, \"41\": {\"C\": 1}, \"42\": {\"C\": 1}, \"43\": {\"C\": 1}, \"44\": {\"C\": 1}, \"45\": {\"C\": 1}, \"46\": {\"C\": 1}, \"47\": {\"C\": 1}, \"48\": {\"O\": 1}, \"49\": {\"O\": 1}, \"50\": {\"O\": 1}, \"51\": {\"O\": 1}, \"52\": {\"O\": 1}, \"53\": {\"O\": 1}, \"54\": {\"O\": 1}, \"55\": {\"O\": 1}}" energy=-313.6218566894531 free_energy=-313.6218566894531 stress="-0.006905437912791967 -0.001385175040923059 -0.004504755139350891 -0.001385175040923059 0.009439174085855484 0.005600084085017443 -0.004504755139350891 0.005600084085017443 0.013407011516392231" pbc="T T T"
H        0.49738831       1.84331560       1.77824738        0      -0.10613524      -0.09781643       0.11564493      -0.18202288       0.31332418       0.59539759
H        0.10556168      -0.11663715       8.27653534        1       0.04015869      -0.13169666       0.14437793      -0.36897841      -0.78898907       0.22590959
H        6.62289152      -0.91207458       5.20265706        2      -0.16864281       0.10450104      -0.19163892       0.98593998      -0.03108398       0.77321970
H        3.36922854       0.56254894       5.08036060        3       0.12068252      -0.12391027       0.11663936      -0.39408502      -0.59534085      -0.23535818
H        5.95301313       0.59228785       3.38812098        4       0.14111038      -0.33747229      -0.07871839      -0.93092060      -0.50391757       0.87668049
H        5.01743987       0.42520670       7.32441986        5      -0.23162817       0.06489233      -0.14197914      -0.38864517      -1.26105809      -0.47847918
H       -1.57731805       0.54128698      10.53958317        6      -0.12407169      -0.08816815      -0.07763654      -0.37741759      -0.46802920       0.30723113
H        2.69863451       2.00433401       0.26116693        7      -0.05404231       0.01556918      -0.10226152      -0.72495705      -0.67533600      -0.86531210
H       -1.22304010       1.63674031       1.75940518        8      -0.05424901       0.24253137      -0.13897881      -0.49739617      -0.09368098       0.10531405
H       -8.93359277       2.96971062       8.47514732        9      -0.06042108      -0.12559561      -0.10761941       0.36629289      -0.63057727       0.55262530
H       -2.26849164       4.25936861       6.83350174       10       0.20578926       0.12214605       0.33238221      -0.06949544      -0.47617170      -0.34375900
H       -6.68836089       4.95609494       3.39407436       11      -0.06212350       0.10325976      -0.15892822       0.13253984      -0.56484807       0.15243649
H       -3.12925539       0.32645879       3.01954347       12       0.09286693       0.17897879      -0.00989693       0.31409013       0.11225532       0.01380482
H       -6.80751080       1.79512344       7.74588636       13       0.11313904      -0.05419774      -0.04504077      -2.35592270       0.59493876      -0.52509969
H       -1.67751174       0.97559862       8.80862460       14       0.00516062      -0.30016288      -0.16851235      -0.66054493       0.17537329       0.81925809
H       -7.85157887       2.25969196       2.02092868       15       0.06193745       0.16966557       0.04108974       0.45021382       0.30492851      -0.97371614
H       -1.03679275       0.54726060       4.10971756       16       0.09384426       0.18125913      -0.07858791       0.29053831       0.47455648       0.73893392
H        1.41496423       2.60741836       5.94194795       17       0.17914755       0.16207925      -0.08142864       0.04019552      -0.18981998       0.67823267
H       -0.64058339       2.00872412       6.06364883       18      -0.05634322       0.12337135       0.04032506      -0.53551406       0.51595896      -0.09275854
H        0.85977707      -0.92446415       4.06230121       19       0.08226652       0.01615424       0.13954129      -0.43777251      -0.05474467       0.42652696
H        7.07832360       1.52716365       0.77918365       20       0.03746110       0.06299179      -0.11847661      -0.51152390      -0.36470348      -0.19009160
H       -5.65481840       2.28567755       9.73114978       21       0.07723420       0.36926700      -0.07795982       0.09997377      -0.39057177       0.05156511
H        6.08095729      -2.02800066       9.57309393       22       0.04996183       0.13992246      -0.04251386       0.10452026      -0.44056171      -0.00563881
H       -5.39307742       3.26285556       1.28813567       23      -0.08191842      -0.05415499       0.26987080      -0.86362386      -0.75487274      -0.77636606
H       -0.07299383       0.27971734       1.81916994       24       0.13898031       0.34269254       0.14181134      -0.42564139      -0.34437826       0.62044847
H       -1.06700031      -1.51563953       8.21163915       25      -0.20145542       0.01373101       0.07616488      -0.17211151      -0.24384953       0.51164758
H       -2.96209889       2.60530197       6.43440264       26       0.06315685      -0.07175082      -0.16381497       0.16209316       0.09858383       0.31126764
H       -6.35720013       3.51669348       4.57538929       27       0.16449696       0.18567965       0.02440224      -0.60309780       1.40272701      -0.34498307
H       -3.82677201       2.00991142       3.18430541       28       0.08980637      -0.11710659      -0.00472127       0.23108046       0.02058500      -0.20069322
H       -5.17636467       2.03285289       7.19923504       29       0.10905298      -0.18779761       0.15106016      -0.36807603      -0.23564439       0.74253672
H       -0.79357729       4.53174520      -0.43569561       30      -0.12627998      -0.10201604      -0.01900696      -0.09977580       0.06217783       0.11299293
H        2.31575727       1.30675629      11.36317836       31       0.12164053       0.07458633      -0.08519190       0.08103773      -0.48912281      -0.09376670
C       -0.37163621       1.38708490       3.80590666       32       0.82677717       0.29513901       0.09766196       0.43049255      -0.84296417      -2.02713251
C        0.11847910      -1.18778300       6.49983784       33      -0.62840431      -0.18736710      -0.14628060      -0.37041613       0.27213603      -0.96542919
C       -0.97555891       2.96185309       5.57576501       34      -0.36449290      -1.07571642       0.20948508       0.37155515       0.17796843       0.59155941
C        1.35011572      -0.15700504       4.68315330       35      -0.02227851       0.95830941       0.13073170       0.73834121       1.50494421       0.40339059
C        6.36784113       0.86650845       1.33870134       36       0.30590332       0.88519042       1.28776949       1.97926998      -0.30295712       0.89316958
C       -5.53677829       1.29363394       9.24627708       37       0.27688699      -0.37684553       0.66636353      -0.66258025      -0.77057475       0.58603603
C       -3.39932676       1.69730074      10.02118762       38      -0.84111795      -0.44257114       0.59809733       0.37920541       0.54999548       0.65976596
C        4.71880458       2.50518188       0.70336298       39       0.38984836       0.88224139      -0.51305501      -0.59656495       1.44278812       0.49371687
C       -0.32683933       1.26219663       2.24609221       40      -0.63948324       0.50546201       0.23424508       0.77350163       0.79704297      -0.39457494
C       -0.05210444      -1.19852077       8.01058154       41       0.11582218      -0.65736692      -0.92748041       0.85163152       1.37451375      -1.02304864
C       -2.37909933       3.46525764       6.06278730       42      -0.05353667       0.08466993      -0.15003234      -0.40584189      -0.60535574      -1.67190361
C        2.83806340      -0.17358536       4.41939528       43       0.55230261       0.76816257      -0.43149829       1.06820750      -0.67908466       0.54367900
C        6.77902025       0.98017837       2.84378918       44      -1.12306997      -0.45029137       0.26639783      -0.51441026       0.02891825      -1.28142524
C       -5.86817682       1.36776566       7.79427937       45      -0.98979988      -0.05587346      -0.83441402       2.87884760       1.13959455      -0.55466813
C       -1.97699402       1.28319936       9.85895601       46       0.40696934      -0.18668214       0.33790393       1.72741961       0.51336652      -1.56752443
C        3.19008781       2.61285401       0.97606091       47       0.25747626       0.90121154      -0.18332913       1.07156682       1.22873878       1.82996416
O       -0.85758728       2.66103178       4.11713043       48       0.61684499      -0.37118724       1.25663792      -0.17585248       0.40347359       1.06925499
O        1.08909381      -0.23997554       6.12862834       49      -0.39618555      -0.37804578      -0.11483735       0.12260000      -0.37597722      -0.82796943
O       -1.16050477      -0.72093724       5.97406340       50      -0.34983675      -1.05740019      -0.27246607      -0.47366965      -0.41498417      -0.96765339
O        1.00795473       1.19208931       4.24044431       51      -0.03056988       0.15482605      -1.24559157      -1.03327787      -0.52625465       0.63129187
O       -3.10184423       4.20162639       0.97719075       52      -0.29226561       0.28802525      -0.94690321      -0.31202072       1.32850432      -0.04797772
O        4.30825709       0.33413980       9.75623653       53       0.02704395      -1.15722634      -0.33727083      -0.25941110       0.04011612       0.50478446
O       -4.24389649       0.74756660       9.49746216       54       0.41595557      -0.82784257       0.02625935       0.13963708       0.06729938      -0.42571431
O        5.02961366       1.21054937       1.07684139       55       0.87862706       0.61974597       1.29120822      -0.01922387      -0.82935464       0.05840230
