56
Lattice="10.7619164 0.0 0.0 -9.665296305262016 4.732958053065482 0.0 -0.5483100463354086 -2.3664790220718444 10.484177494289693" Properties=species:S:1:pos:R:3:spacegroup_kinds:I:1:momenta:R:3:forces:R:3 spacegroup="P 1" unit_cell=conventional occupancy="_JSON {\"0\": {\"H\": 1}, \"1\": {\"H\": 1}, \"2\": {\"H\": 1}, \"3\": {\"H\": 1}, \"4\": {\"H\": 1}, \"5\": {\"H\": 1}, \"6\": {\"H\": 1}, \"7\": {\"H\": 1}, \"8\": {\"H\": 1}, \"9\": {\"H\": 1}, \"10\": {\"H\": 1}, \"11\": {\"H\": 1}, \"12\": {\"H\": 1}, \"13\": {\"H\": 1}, \"14\": {\"H\": 1}, \"15\": {\"H\": 1}, \"16\": {\"H\": 1}, \"17\": {\"H\": 1}, \"18\": {\"H\": 1}, \"19\": {\"H\": 1}, \"20\": {\"H\": 1}, \"21\": {\"H\": 1}, \"22\": {\"H\": 1}, \"23\": {\"H\": 1}, \"24\": {\"H\": 1}, \"25\": {\"H\": 1}, \"26\": {\"H\": 1}, \"27\": {\"H\": 1}, \"28\": {\"H\": 1}, \"29\": {\"H\": 1}, \"30\": {\"H\": 1}, \"31\": {\"H\": 1}, \"32\": {\"C\": 1}, \"33\": {\"C\": 1}, \"34\": {\"C\": 1}, \"35\": {\"C\": 1}, \"36\": {\"C\": 1}, \"37\": {\"C\": 1}, \"38\": {\"C\": 1}, \"39\": {\"C\": 1}, \"40\": {\"C\": 1}, \"41\": {\"C\": 1}, \"42\": {\"C\": 1}, \"43\": {\"C\": 1}, \"44\": {\"C\": 1}, \"45\": {\"C\": 1}, \"46\": {\"C\": 1}, \"47\": {\"C\": 1}, \"48\": {\"O\": 1}, \"49\": {\"O\": 1}, \"50\": {\"O\": 1}, \"51\": {\"O\": 1}, \"52\": {\"O\": 1}, \"53\": {\"O\": 1}, \"54\": {\"O\": 1}, \"55\": {\"O\": 1}}" energy=-315.20623779296875 free_energy=-315.20623779296875 stress="0.0015259819338098168 -0.0007349704974330962 -5.960254156889278e-07 -0.0007349704974330962 -0.0014767794637009501 6.180694356316963e-08 -5.960254156889278e-07 6.180694356316963e-08 0.0016979852225631475" pbc="T T T"
H       -0.01248427       2.27696696       1.83153339        0       0.26354636       0.05758816       0.17128558       0.07122670       0.02707765       0.05251712
H        0.46428407      -0.32702137       8.65264411        1       0.35723632       0.30052336      -0.15421514      -0.05205575       0.05564431      -0.05251540
H        7.11696904      -0.62167877       5.76820574        2       0.13651140      -0.03657588      -0.02448058       0.06071829       0.02959735      -0.06332482
H        3.54843712       0.20514534       4.71597175        3       0.04495575       0.01373704       0.24194406      -0.04159928       0.05318646       0.06330238
H        5.94175252       0.08951207       3.41055536        4       0.10004105       0.00919574       0.06893732      -0.07122621      -0.02707671      -0.05251814
H        4.91667413       0.32702137       7.07362213        5       0.03762731       0.23702154      -0.03633186       0.05205636      -0.05563804       0.05251925
H       -1.73601084       0.62167878       9.95806050        6       0.04090260      -0.15000140      -0.41043770      -0.06071893      -0.02958645       0.06332445
H        2.38083113       2.16133369       0.52611700        7       0.07639930       0.13373956      -0.11953039       0.04159779      -0.05318516      -0.06330115
H       -1.38564785       1.18011340       2.11584331        8       0.34764813      -0.24942510       0.01968671       0.00912181       0.09641431       0.00989615
H       -8.45014457       2.81694541       8.36833418        9      -0.04487542       0.24826795       0.27191556       0.03391351       0.09078126      -0.00994027
H       -2.58250803       2.70418269       6.85836100       10       0.00836639       0.05472545      -0.13232917       0.03144349       0.09145373       0.01228220
H       -6.70499477       3.65935988       3.62581649       11      -0.35280026      -0.06406840       0.05024236       0.01202236       0.09588334      -0.01239106
H       -3.44700030       1.18636563       3.12624543       12       0.17759995       0.19181929      -0.04741865      -0.00912258      -0.09641404      -0.00989539
H       -6.59610993       1.91601265       7.35793206       13      -0.06659844      -0.18039638      -0.21144164      -0.03391572      -0.09078156       0.00994141
H       -1.70183007       2.02877537       8.86790524       14      -0.29590695       0.31510437      -0.07166042      -0.03144015      -0.09144827      -0.01229356
H       -7.79294969       3.44007720       1.61627226       15      -0.10166361      -0.21365327       0.15571300      -0.01202464      -0.09588435       0.01238947
H       -0.77544238       0.72057867       4.36236141       16      -0.29135246      -0.04383699      -0.13778795      -0.05580276      -0.06497602       0.06553181
H        1.56164860       2.67260202       6.12181608       17       0.04513471      -0.09416448      -0.19034861       0.02151171      -0.08285728      -0.06550524
H       -0.46393564       1.89516633       6.16016720       18      -0.02388752       0.06229365       0.02104621       0.04679096      -0.08891382       0.03981815
H        0.70181139      -0.86845994       4.32401029       19       0.02574107      -0.11427781      -0.05287528      -0.08095913      -0.05914072      -0.03975129
H        6.70471062       1.64590036       0.87972733       20      -0.14286290      -0.07079985      -0.14118650       0.05580558       0.06498164      -0.06553440
H       -5.84598670       2.06035604       9.60445016       21      -0.29753233       0.02254640      -0.04431235      -0.02151361       0.08285316       0.06550366
H        5.84489385      -1.89516633       9.56609904       22      -0.28312851       0.06560536      -0.15494221      -0.04679293       0.08891536      -0.03981559
H       -5.53445954       3.23493897       0.91807845       23      -0.02208037       0.11416853       0.04301970       0.08095740       0.05914077       0.03974695
H        0.25131050       0.51347389       1.94957474       24       0.15959789      -0.21361364       0.07505588      -0.00851068      -0.01871653      -0.03717721
H       -0.54820374      -1.79480395       8.53460275       25      -0.12868866      -0.15316038      -0.08588331      -0.00032993      -0.02044775       0.03709370
H       -2.80766320       2.46899490       5.11315433       26      -0.07305533       0.00146869      -0.17781296      -0.04083826      -0.01125187       0.00405127
H       -6.60619587       3.34910738       5.37102316       27       0.12888264       0.07074453      -0.23064715       0.03167370      -0.02802484      -0.00411365
H       -5.08395866       1.85300514       3.29251401       28       0.22099581       0.30740365       0.21601993       0.00851498       0.01871260       0.03717733
H       -4.83275446       1.79480396       7.19166349       29      -0.04673026      -0.18471461       0.19482948       0.00034702       0.02045746      -0.03709809
H       -0.92836486       4.63044218       0.12893441       30      -0.09883902       0.19431951       0.04569436       0.04083291       0.01124301      -0.00406415
H        2.32185777       1.38385068      10.35524308       31       0.15211596       0.04921952       0.12080102      -0.03167608       0.02802779       0.00411106
C       -0.12835063       1.44534837       3.84841655       32      -0.28778073       0.91754073       0.18270710      -0.01445557       0.09213166      -0.08206674
C        0.20260826      -1.12485611       6.63576095       33       0.00096406       0.97078231      -0.67128192       0.05361658       0.07627192       0.08205768
C       -0.77226604       2.84130358       5.69336968       34      -0.96473690       0.45234422      -0.54337998      -0.06051332       0.10292982       0.03487827
C        1.39483372      -0.15433229       4.79080781       35       0.83737779      -0.34833687      -0.35976593       0.09947467       0.06571291      -0.03489170
C        6.05761888       0.92113066       1.39367220       36       0.73780001       0.71679960       1.01054651       0.01444725      -0.09213783       0.08206800
C       -5.58356646       1.12485611       9.09050530       37       0.36600935      -0.57579551       1.35161317      -0.05360154      -0.07626182      -0.08206040
C       -3.51207206       1.89165448      10.03289656       38      -0.27702103       0.36712178       0.74445208       0.06052628      -0.10293438      -0.03488978
C        4.53443453       2.52081132       0.45128094       39      -0.47025582       0.22782501       0.51146167      -0.09947273      -0.06572077       0.03490418
C       -0.32593927       1.35886302       2.34265801       40      -0.11966996      -0.73251108       0.28611321      -0.02487631      -0.04884125       0.03836596
C        0.34202778      -1.28942579       8.14151949       41       0.57030904      -0.50578053       0.01064034       0.00090482      -0.05509150      -0.03821068
C       -2.26824862       3.05565688       5.86632716       42      -0.48098077       0.96238649       0.55365818       0.02524525      -0.06073742       0.01393136
C        2.83264719      -0.61974062       4.61785033       43      -0.04860277      -0.55844948       0.33742963      -0.04931873      -0.04330999      -0.01374432
C        6.25520752       1.00761601       2.89943074       44      -0.70747446      -0.11378709      -0.42767829       0.02487189       0.04884392      -0.03836627
C       -5.72298598       1.28942580       7.58474676       45       0.19434055       0.24831833       0.14297097      -0.00092418       0.05507573       0.03821235
C       -2.01608948       1.67730118       9.85993908       46       0.09740524      -0.72425149      -0.69205550      -0.02525535       0.06073125      -0.01389861
C        3.09662106       2.98621965       0.62423841       47      -0.12331172      -0.02208015       0.38636924       0.04932716       0.04330564       0.01374406
O       -0.42625656       2.75924355       4.28180099       48       1.20625674       0.48604619      -0.44497158       0.00567048      -0.06416605       0.01081688
O        1.04798334      -0.07585512       6.20237650       49       0.42305791      -1.01659881      -0.20166176      -0.03317473      -0.05508615      -0.01086380
O       -1.17294689      -0.80803189       6.28015861       50      -0.36133290       0.99731317      -0.30860065      -0.00324891      -0.06212899      -0.01994137
O        1.24638404       1.12493657       4.20401888       51      -0.92624698      -0.21254257      -0.34164539      -0.02462097      -0.05716422       0.01989280
O       -3.30977150       4.34019353       0.96028775       52       0.26500009      -0.83301049      -0.49473951      -0.00567131       0.06416625      -0.01082169
O        4.33297486       0.07585512       9.52388974       53      -0.48283211      -0.49689578       1.25894465       0.03316866       0.05508536       0.01086737
O       -4.20801131       0.80803190       9.44610763       54       0.43498781      -0.06064940      -0.51538975       0.00324847       0.06213054       0.01994741
O        4.68288421       1.24154246       1.03806987       55       0.06343698      -0.82659266      -1.04828579       0.02462435       0.05716904      -0.01989796
56
Lattice="10.7619164 0.0 0.0 -9.665296305262016 4.732958053065482 0.0 -0.5483100463354086 -2.3664790220718444 10.484177494289693" Properties=species:S:1:pos:R:3:spacegroup_kinds:I:1:momenta:R:3:forces:R:3 spacegroup="P 1" unit_cell=conventional occupancy="_JSON {\"0\": {\"H\": 1}, \"1\": {\"H\": 1}, \"2\": {\"H\": 1}, \"3\": {\"H\": 1}, \"4\": {\"H\": 1}, \"5\": {\"H\": 1}, \"6\": {\"H\": 1}, \"7\": {\"H\": 1}, \"8\": {\"H\": 1}, \"9\": {\"H\": 1}, \"10\": {\"H\": 1}, \"11\": {\"H\": 1}, \"12\": {\"H\": 1}, \"13\": {\"H\": 1}, \"14\": {\"H\": 1}, \"15\": {\"H\": 1}, \"16\": {\"H\": 1}, \"17\": {\"H\": 1}, \"18\": {\"H\": 1}, \"19\": {\"H\": 1}, \"20\": {\"H\": 1}, \"21\": {\"H\": 1}, \"22\": {\"H\": 1}, \"23\": {\"H\": 1}, \"24\": {\"H\": 1}, \"25\": {\"H\": 1}, \"26\": {\"H\": 1}, \"27\": {\"H\": 1}, \"28\": {\"H\": 1}, \"29\": {\"H\": 1}, \"30\": {\"H\": 1}, \"31\": {\"H\": 1}, \"32\": {\"C\": 1}, \"33\": {\"C\": 1}, \"34\": {\"C\": 1}, \"35\": {\"C\": 1}, \"36\": {\"C\": 1}, \"37\": {\"C\": 1}, \"38\": {\"C\": 1}, \"39\": {\"C\": 1}, \"40\": {\"C\": 1}, \"41\": {\"C\": 1}, \"42\": {\"C\": 1}, \"43\": {\"C\": 1}, \"44\": {\"C\": 1}, \"45\": {\"C\": 1}, \"46\": {\"C\": 1}, \"47\": {\"C\": 1}, \"48\": {\"O\": 1}, \"49\": {\"O\": 1}, \"50\": {\"O\": 1}, \"51\": {\"O\": 1}, \"52\": {\"O\": 1}, \"53\": {\"O\": 1}, \"54\": {\"O\": 1}, \"55\": {\"O\": 1}}" energy=-314.163330078125 free_energy=-314.163330078125 stress="0.0017965232254937291 -0.006295063067227602 0.004064931068569422 -0.006295063067227602 0.002897592494264245 0.0068001458421349525 0.004064931068569422 0.0068001458421349525 -0.004473628010600805" pbc="T T T"
H        0.12223870       2.21335579       1.84744825        0      -0.06388221      -0.04108016      -0.23331076      -0.34890532      -0.46717733       0.26391658
H        0.31702074      -0.21474900       8.50409136        1      -0.41596674       0.28241776       0.13417992       0.19316667      -0.82258761      -0.04442019
H        7.16689582      -0.52337017       5.79422134        2      -0.01099331       0.09115136       0.18553091      -0.25330952       0.53083527      -0.08150248
H        3.56769346       0.19128012       4.81695800        3       0.00635046       0.03106410      -0.05661327      -0.45246992      -0.59983289       0.03513699
H        5.89857392       0.12906189       3.45590350        4      -0.13662977       0.06346623       0.07412529      -0.11012684      -0.04154352      -0.10463420
H        5.01440542       0.32414387       7.14335942        5       0.11996956      -0.01313407       0.16304592      -0.17231078      -0.44181597      -0.12290092
H       -1.69404182       0.62953429       9.70230148        6      -0.06773592       0.00953649      -0.07983928      -0.29939795      -0.31745869       0.05526329
H        2.37945908       2.25462950       0.31380998        7      -0.10899679       0.12801580      -0.23887811      -0.36571202      -0.41984776      -0.02494942
H       -1.28062218       1.09681357       2.00394187        8       0.10394075       0.17626282      -0.14567619      -0.56132621      -0.12197584      -0.18949573
H       -8.36548940       3.00985768       8.44664935        9       0.01874359       0.07750828      -0.14054409       0.39232004      -0.31946769      -0.01170091
H       -2.54664931       2.78893575       6.82205309       10       0.03048623       0.25775630      -0.04488845      -0.41236806      -0.20837292       1.19027066
H       -6.74143406       3.80633209       3.57290633       11       0.32050254       0.15943870       0.02898735       0.31104130       0.03237047       0.37734771
H       -3.41360546       1.09458053       3.05616298       12       0.34318361      -0.23802475       0.07743257      -0.50854141       0.08234674       0.33155939
H       -6.59466946       1.88031615       7.31880475       13       0.01536660       0.03548312       0.08656131      -0.08189692      -0.12137224       0.20796537
H       -1.92963185       2.16013642       8.81427842       14       0.12531098      -0.02323620      -0.06973057       0.40313536      -0.12264397      -0.32056493
H       -7.86690875       3.29972357       1.71696126       15      -0.08477307      -0.03159826       0.12293904      -0.01434019      -0.41004384      -0.77136505
H       -0.90235492       0.77646748       4.33988643       16      -0.08685998      -0.05814804       0.28342576       0.40912464       0.11714727       0.19912305
H        1.57326846       2.69585858       6.02312951       17       0.00715133      -0.12380861      -0.16254806      -0.29899102      -0.23122886       0.25480562
H       -0.61632286       1.91476308       6.12879312       18      -0.08876033       0.01924341      -0.05101234       0.36619461      -0.32495356       0.18464804
H        0.76835889      -0.91704684       4.28843429       19      -0.15605139       0.01894762       0.06988654      -0.03238271       0.22899662       0.08527172
H        6.70609322       1.62092020       0.91686459       20       0.01929239      -0.19191439       0.26163560       0.76997513       0.63578331      -0.47934997
H       -5.82009077       2.01052709       9.75507013       21       0.30326580       0.03656588       0.14022307      -0.00922709      -0.03741000      -0.50983751
H        5.81093417      -1.87039270       9.61285228       22       0.20657582       0.20659840      -0.02039164       0.37428081      -0.52969152       0.33497992
H       -5.59543446       3.24736136       1.04015513       23      -0.04224137      -0.11354994       0.21265891       0.13948366      -0.29077309      -0.10894258
H        0.42784606       0.48710586       2.10176741       24       0.30049801      -0.13611016      -0.00468410      -0.59484541       0.09816524      -0.19185036
H       -0.53518873      -1.77813126       8.52127419       25       0.00655561       0.08690821       0.10595489       0.65831834      -0.06782465      -0.13440570
H       -2.96285663       2.59157643       5.13270574       26      -0.25300696       0.03340882       0.06572269       0.52107501       0.35914677       0.31286824
H       -6.55716736       3.24215832       5.23786854       27      -0.16752543      -0.02805306      -0.10766365       0.03742127      -0.88643479       0.79596204
H       -5.03685279       1.93128227       3.36334312       28      -0.15021138       0.12582532      -0.10191883       0.62859118      -0.83863431      -0.54655313
H       -4.85344601       1.77016485       7.27072605       29      -0.06649181       0.16884063       0.01181296       1.25072992       0.88673341      -0.39224732
H       -0.86175599       4.56432673       0.03964647       30       0.17846390      -0.19144307      -0.07943187      -0.39176029      -0.36752546      -0.55813378
H        2.38301374       1.54051146      10.51636397       31      -0.19060838       0.01911308       0.25222917       0.14690995      -0.16933882       0.11266173
C       -0.17581897       1.46226533       3.84974164       32      -0.18515658      -0.57459550      -0.22058232       0.27883181      -0.44003379       0.08531469
C        0.22192600      -1.12504879       6.58997344       33      -0.07512311      -0.46550110       0.08488136      -0.55275750      -0.80494702       0.23250452
C       -0.84336858       2.87265023       5.66245298       34       0.04319838       0.29158497      -0.23378160       1.13018560       0.50398952      -0.24388550
C        1.43229076      -0.18392811       4.79404744       35      -0.39846553      -0.16641818      -0.07506734      -1.39262700       0.15177652      -0.49470311
C        6.06713488       0.93900034       1.43224267       36      -0.39497139      -0.32073275      -0.80955250      -1.35843980      -1.50483632      -0.67591643
C       -5.58329451       1.10380716       9.15771830       37      -0.36193224      -0.01752096       0.07000815      -0.01275364       0.62094957      -0.17375737
C       -3.52181739       1.89477508      10.09402551       38       0.16177578      -0.52863262       0.28467030       0.13258269       0.16549788      -2.07575369
C        4.51640584       2.52102927       0.51005713       39       0.36138349      -0.43527643       0.58505063       0.14679149       0.12096072       0.07939647
C       -0.28405293       1.30051715       2.35611376       40       0.19195174      -0.55821549       0.03644886       1.44870090       0.72397059      -0.52214938
C        0.37449212      -1.27541846       8.11748207       41       0.14753559       0.49373601      -0.46888037      -1.73077941       1.54831243      -0.36516783
C       -2.30636823       3.14844780       5.85186587       42      -0.25949143       1.26103943      -0.54787088      -0.30484614      -0.37169403      -1.63761926
C        2.84200268      -0.65064888       4.64737901       43       0.56034522      -0.10141638      -0.32885460       0.85266268       1.99939585      -1.91113925
C        6.24443653       1.02088160       2.92126917       44       0.40080586      -0.06552302       0.31202195       0.30223894       0.54350042       0.34550545
C       -5.72072982       1.29321541       7.63361805       45      -0.11247017      -0.13664564       1.05760893      -1.14459777      -0.53768873       0.96596754
C       -2.05012739       1.65516315       9.77267023       46      -0.47453620       0.69520736      -0.54057395       0.62453240       1.48065054       1.00712240
C        3.08351630       3.00246313       0.64822752       47      -0.01605104       0.11556176       0.01381025       0.20967510       0.51372236       0.80870485
O       -0.35411231       2.78763684       4.26978768       48       0.22350747       0.25056269       0.25663329      -1.10039783       0.01685476       0.20638040
O        1.06167983      -0.11984226       6.16496940       49      -0.16821879      -0.55392477      -0.45958729       0.11151824       0.85498428       0.49101228
O       -1.21357942      -0.78977938       6.25156088       50      -0.33543370      -0.44277461      -0.25066834       0.73390591      -0.39541662       0.41342318
O        1.20697420       1.13024276       4.19342496       51       0.17004595       0.12777107       0.14454286       0.59316218      -1.04898584       0.70126647
O       -3.31489246       4.29054000       0.93958222       52      -0.41183552      -0.17658507       0.40053860      -0.10513975       0.93135196       2.17608809
O        4.33821577       0.06296654       9.62059752       53       0.35992277       0.45633113       0.21462748       0.43338266       0.52332366      -1.13898098
O       -4.17202258       0.83010248       9.41381798       54       0.02043464       0.24051373      -0.02777861      -0.78840947      -0.43916073       0.27765214
O        4.70668948       1.20000077       0.96656717       55       0.53785639      -0.22599725      -0.23686559      -0.20127830       0.02995119       1.29980779
56
Lattice="10.7619164 0.0 0.0 -9.665296305262016 4.732958053065482 0.0 -0.5483100463354086 -2.3664790220718444 10.484177494289693" Properties=species:S:1:pos:R:3:spacegroup_kinds:I:1:momenta:R:3:forces:R:3 spacegroup="P 1" unit_cell=conventional occupancy="_JSON {\"0\": {\"H\": 1}, \"1\": {\"H\": 1}, \"2\": {\"H\": 1}, \"3\": {\"H\": 1}, \"4\": {\"H\": 1}, \"5\": {\"H\": 1}, \"6\": {\"H\": 1}, \"7\": {\"H\": 1}, \"8\": {\"H\": 1}, \"9\": {\"H\": 1}, \"10\": {\"H\": 1}, \"11\": {\"H\": 1}, \"12\": {\"H\": 1}, \"13\": {\"H\": 1}, \"14\": {\"H\": 1}, \"15\": {\"H\": 1}, \"16\": {\"H\": 1}, \"17\": {\"H\": 1}, \"18\": {\"H\": 1}, \"19\": {\"H\": 1}, \"20\": {\"H\": 1}, \"21\": {\"H\": 1}, \"22\": {\"H\": 1}, \"23\": {\"H\": 1}, \"24\": {\"H\": 1}, \"25\": {\"H\": 1}, \"26\": {\"H\": 1}, \"27\": {\"H\": 1}, \"28\": {\"H\": 1}, \"29\": {\"H\": 1}, \"30\": {\"H\": 1}, \"31\": {\"H\": 1}, \"32\": {\"C\": 1}, \"33\": {\"C\": 1}, \"34\": {\"C\": 1}, \"35\": {\"C\": 1}, \"36\": {\"C\": 1}, \"37\": {\"C\": 1}, \"38\": {\"C\": 1}, \"39\": {\"C\": 1}, \"40\": {\"C\": 1}, \"41\": {\"C\": 1}, \"42\": {\"C\": 1}, \"43\": {\"C\": 1}, \"44\": {\"C\": 1}, \"45\": {\"C\": 1}, \"46\": {\"C\": 1}, \"47\": {\"C\": 1}, \"48\": {\"O\": 1}, \"49\": {\"O\": 1}, \"50\": {\"O\": 1}, \"51\": {\"O\": 1}, \"52\": {\"O\": 1}, \"53\": {\"O\": 1}, \"54\": {\"O\": 1}, \"55\": {\"O\": 1}}" energy=-313.85382080078125 free_energy=-313.85382080078125 stress="0.013761424459517002 -0.004879427142441273 -0.005674306303262711 -0.004879427142441273 0.006163903512060642 0.005476019345223904 -0.005674306303262711 0.005476019345223904 -0.0018128423253074288" pbc="T T T"
H        0.15152029       2.21865820       1.86996601        0       0.18670818      -0.17536434       0.06887294      -0.25462782      -0.83075178       0.05804620
H        0.10920510      -0.19334264       8.62244501        1      -0.00897884       0.26460677      -0.03107053       0.20135856      -1.45994139      -1.01799297
H        7.15516444      -0.39883635       5.76710607        2       0.22383255       0.15937043      -0.34067688       0.18644509       0.19728188      -0.26340443
H        3.55287380       0.14212041       5.10648278        3      -0.16824442      -0.25377470       0.22539365      -0.53552711      -0.32389951      -0.69896162
H        5.71904801       0.28007962       3.48878618        4      -0.14175097       0.06957645       0.07981268      -0.42629361      -0.45673609       0.12704824
H        5.07217444       0.33732697       7.23278702        5      -0.02221071       0.07819959       0.03358486       0.14585127      -0.33883536      -0.34743690
H       -1.86337464       0.61454907       9.70908651        6       0.00209987      -0.06951307       0.02682870       0.35397291       0.27212802       0.03441949
H        2.40409165       2.23500129       0.27412505        7      -0.05904477      -0.08227811      -0.03197366       0.20295024       0.43273652      -0.32657361
H       -1.27779547       1.10993527       2.00836778        8      -0.09536132      -0.13044334       0.02708151      -0.83863801       0.04003316      -0.43664652
H       -8.33962601       3.21420930       8.35225609        9       0.17273819       0.29406224      -0.08361741       0.23368110       0.22765648      -0.09217989
H       -2.54133522       3.01261334       6.85842841       10       0.10491101       0.07367844       0.12017910      -0.11240859      -0.33224323       0.81576556
H       -6.39093375       3.84895160       3.60576957       11       0.14443705       0.00657612      -0.00789944      -0.26306587       0.31059319      -0.29989013
H       -3.37778197       0.94136166       3.24468000       12       0.01522093      -0.07500932       0.19342036      -1.33400297      -0.10755531      -0.76893210
H       -6.68609548       1.78694185       7.51153392       13      -0.08667817      -0.27258704      -0.01170143      -0.20094147      -0.13165604      -0.15521330
H       -1.76453239       2.05976718       8.70170610       14       0.02189851      -0.10309638       0.09738919      -0.31269476       0.19350226       0.31043985
H       -7.95446004       3.02340544       1.79564968       15      -0.04973573      -0.11226845       0.02076956       0.41189477       0.38057590      -1.18562245
H       -0.80018672       0.77039124       4.49092964       16       0.00831345      -0.06072611      -0.00660604       0.00097004       0.17438802      -0.99411446
H        1.44500771       2.50713075       6.17382263       17       0.01225010      -0.28997359      -0.01209782       0.24866462       1.14403427       0.13491623
H       -0.56090752       1.92546791       6.04306251       18       0.00912423       0.02953051      -0.02228960      -0.35387129      -0.16754940       0.13082847
H        0.67939900      -0.89355050       4.27079632       19       0.07644915      -0.05095149      -0.04691382       0.30056721      -0.10530365      -0.07735525
H        6.74714451       1.49845920       0.85340920       20      -0.11245922      -0.08927540      -0.22056999       0.51640046       1.18711495      -0.49470490
H       -5.80988208       2.10952453       9.71365889       21      -0.20491597       0.06817264      -0.10894752       0.02467427      -0.34780347      -0.22419608
H        5.87596093      -1.83571109       9.70363706       22      -0.16165018       0.07076789       0.03590459      -0.15178888      -0.88951409      -0.00086526
H       -5.50015881       3.11440204       1.13784152       23       0.11933098       0.03126380      -0.00442164      -0.11865069       0.35620594      -0.32354999
H        0.36855200       0.33657772       1.99417360       24      -0.04607089      -0.23447360      -0.15432096      -1.04204106       1.71019220       0.43702009
H       -0.32413892      -2.00709551       8.53026248       25       0.20339006      -0.17844300      -0.18322127       0.05246548       0.67889309      -0.27905434
H       -3.08714241       2.74677619       5.19721880       26      -0.01915454       0.07455447      -0.09249882       0.58998930       0.03474579       0.12558627
H       -6.69673475       3.25872578       5.21696385       27      -0.09696523      -0.06688946      -0.04755593       0.17544308      -1.07491887       0.50441235
H       -4.83143352       2.04721359       3.16449864       28       0.33766963       0.12941244       0.00704985       0.39478046      -1.34767687      -0.01897360
H       -4.93754015       1.99042842       7.37634374       29       0.05869093       0.23203838       0.01089282      -0.29873931      -0.47476566      -0.05642369
H       -0.81005393       4.51876357       0.00822825       30      -0.20155744       0.23295223      -0.03457197      -0.26691586      -0.02006720      -0.48482358
H        2.48120420       1.62674272      10.66760474       31       0.30393407      -0.01816234       0.05312355      -0.25146616      -0.60053092       0.38425484
C       -0.17497679       1.41202889       3.81608589       32       0.11041262      -0.26315995      -0.10980168       0.95673007       0.41550499       1.33579779
C        0.16861400      -1.18805862       6.60335740       33      -0.76776862       0.02199992       0.67403955      -0.22194171       0.09041150      -0.69300890
C       -0.81165541       2.89924225       5.59186427       34      -0.05282344       0.32732968      -0.63230726      -1.19237399      -0.34071350       0.60169899
C        1.38527139      -0.18167028       4.74198786       35       0.10269940       0.21879136      -0.68694704       0.81695557      -0.55121988      -0.59415215
C        6.06620574       0.86818200       1.37965231       36       0.53230814      -0.54626110       0.08532814      -0.00821302      -0.53996718       1.85033476
C       -5.59710014       1.15461054       9.17270550       37       0.05871189       1.06856339       0.55336515       0.70455015       0.84736466       1.79725552
C       -3.48648165       1.86752582      10.06803998       38       0.30032613       0.37939294      -0.58623116      -0.95997185       1.52576351      -0.53065658