56
Lattice="10.7619164 0.0 0.0 -9.665296305262016 4.732958053065482 0.0 -0.5483100463354086 -2.3664790220718444 10.484177494289693" Properties=species:S:1:pos:R:3:spacegroup_kinds:I:1:forces:R:3 spacegroup="P 1" unit_cell=conventional occupancy="_JSON {\"0\": {\"H\": 1}, \"1\": {\"H\": 1}, \"2\": {\"H\": 1}, \"3\": {\"H\": 1}, \"4\": {\"H\": 1}, \"5\": {\"H\": 1}, \"6\": {\"H\": 1}, \"7\": {\"H\": 1}, \"8\": {\"H\": 1}, \"9\": {\"H\": 1}, \"10\": {\"H\": 1}, \"11\": {\"H\": 1}, \"12\": {\"H\": 1}, \"13\": {\"H\": 1}, \"14\": {\"H\": 1}, \"15\": {\"H\": 1}, \"16\": {\"H\": 1}, \"17\": {\"H\": 1}, \"18\": {\"H\": 1}, \"19\": {\"H\": 1}, \"20\": {\"H\": 1}, \"21\": {\"H\": 1}, \"22\": {\"H\": 1}, \"23\": {\"H\": 1}, \"24\": {\"H\": 1}, \"25\": {\"H\": 1}, \"26\": {\"H\": 1}, \"27\": {\"H\": 1}, \"28\": {\"H\": 1}, \"29\": {\"H\": 1}, \"30\": {\"H\": 1}, \"31\": {\"H\": 1}, \"32\": {\"C\": 1}, \"33\": {\"C\": 1}, \"34\": {\"C\": 1}, \"35\": {\"C\": 1}, \"36\": {\"C\": 1}, \"37\": {\"C\": 1}, \"38\": {\"C\": 1}, \"39\": {\"C\": 1}, \"40\": {\"C\": 1}, \"41\": {\"C\": 1}, \"42\": {\"C\": 1}, \"43\": {\"C\": 1}, \"44\": {\"C\": 1}, \"45\": {\"C\": 1}, \"46\": {\"C\": 1}, \"47\": {\"C\": 1}, \"48\": {\"O\": 1}, \"49\": {\"O\": 1}, \"50\": {\"O\": 1}, \"51\": {\"O\": 1}, \"52\": {\"O\": 1}, \"53\": {\"O\": 1}, \"54\": {\"O\": 1}, \"55\": {\"O\": 1}}" energy=-315.20623779296875 free_energy=-315.20623779296875 stress="0.0015259819338098168 -0.0007349704974330962 -5.960254156889278e-07 -0.0007349704974330962 -0.0014767794637009501 6.180694356316963e-08 -5.960254156889278e-07 6.180694356316963e-08 0.0016979852225631475" pbc="T T T"
H       -0.01248427       2.27696696       1.83153339        0       0.07122670       0.02707765       0.05251712
H        0.46428407      -0.32702137       8.65264411        1      -0.05205575       0.05564431      -0.05251540
H        7.11696904      -0.62167877       5.76820574        2       0.06071829       0.02959735      -0.06332482
H        3.54843712       0.20514534       4.71597175        3      -0.04159928       0.05318646       0.06330238
H        5.94175252       0.08951207       3.41055536        4      -0.07122621      -0.02707671      -0.05251814
H        4.91667413       0.32702137       7.07362213        5       0.05205636      -0.05563804       0.05251925
H       -1.73601084       0.62167878       9.95806050        6      -0.06071893      -0.02958645       0.06332445
H        2.38083113       2.16133369       0.52611700        7       0.04159779      -0.05318516      -0.06330115
H       -1.38564785       1.18011340       2.11584331        8       0.00912181       0.09641431       0.00989615
H       -8.45014457       2.81694541       8.36833418        9       0.03391351       0.09078126      -0.00994027
H       -2.58250803       2.70418269       6.85836100       10       0.03144349       0.09145373       0.01228220
H       -6.70499477       3.65935988       3.62581649       11       0.01202236       0.09588334      -0.01239106
H       -3.44700030       1.18636563       3.12624543       12      -0.00912258      -0.09641404      -0.00989539
H       -6.59610993       1.91601265       7.35793206       13      -0.03391572      -0.09078156       0.00994141
H       -1.70183007       2.02877537       8.86790524       14      -0.03144015      -0.09144827      -0.01229356
H       -7.79294969       3.44007720       1.61627226       15      -0.01202464      -0.09588435       0.01238947
H       -0.77544238       0.72057867       4.36236141       16      -0.05580276      -0.06497602       0.06553181
H        1.56164860       2.67260202       6.12181608       17       0.02151171      -0.08285728      -0.06550524
H       -0.46393564       1.89516633       6.16016720       18       0.04679096      -0.08891382       0.03981815
H        0.70181139      -0.86845994       4.32401029       19      -0.08095913      -0.05914072      -0.03975129
H        6.70471062       1.64590036       0.87972733       20       0.05580558       0.06498164      -0.06553440
H       -5.84598670       2.06035604       9.60445016       21      -0.02151361       0.08285316       0.06550366
H        5.84489385      -1.89516633       9.56609904       22      -0.04679293       0.08891536      -0.03981559
H       -5.53445954       3.23493897       0.91807845       23       0.08095740       0.05914077       0.03974695
H        0.25131050       0.51347389       1.94957474       24      -0.00851068      -0.01871653      -0.03717721
H       -0.54820374      -1.79480395       8.53460275       25      -0.00032993      -0.02044775       0.03709370
H       -2.80766320       2.46899490       5.11315433       26      -0.04083826      -0.01125187       0.00405127
H       -6.60619587       3.34910738       5.37102316       27       0.03167370      -0.02802484      -0.00411365
H       -5.08395866       1.85300514       3.29251401       28       0.00851498       0.01871260       0.03717733
H       -4.83275446       1.79480396       7.19166349       29       0.00034702       0.02045746      -0.03709809
H       -0.92836486       4.63044218       0.12893441       30       0.04083291       0.01124301      -0.00406415
H        2.32185777       1.38385068      10.35524308       31      -0.03167608       0.02802779       0.00411106
C       -0.12835063       1.44534837       3.84841655       32      -0.01445557       0.09213166      -0.08206674
C        0.20260826      -1.12485611       6.63576095       33       0.05361658       0.07627192       0.08205768
C       -0.77226604       2.84130358       5.69336968       34      -0.06051332       0.10292982       0.03487827
C        1.39483372      -0.15433229       4.79080781       35       0.09947467       0.06571291      -0.03489170
C        6.05761888       0.92113066       1.39367220       36       0.01444725      -0.09213783       0.08206800
C       -5.58356646       1.12485611       9.09050530       37      -0.05360154      -0.07626182      -0.08206040
C       -3.51207206       1.89165448      10.03289656       38       0.06052628      -0.10293438      -0.03488978
C        4.53443453       2.52081132       0.45128094       39      -0.09947273      -0.06572077       0.03490418
C       -0.32593927       1.35886302       2.34265801       40      -0.02487631      -0.04884125       0.03836596
C        0.34202778      -1.28942579       8.14151949       41       0.00090482      -0.05509150      -0.03821068
C       -2.26824862       3.05565688       5.86632716       42       0.02524525      -0.06073742       0.01393136
C        2.83264719      -0.61974062       4.61785033       43      -0.04931873      -0.04330999      -0.01374432
C        6.25520752       1.00761601       2.89943074       44       0.02487189       0.04884392      -0.03836627
C       -5.72298598       1.28942580       7.58474676       45      -0.00092418       0.05507573       0.03821235
C       -2.01608948       1.67730118       9.85993908       46      -0.02525535       0.06073125      -0.01389861
C        3.09662106       2.98621965       0.62423841       47       0.04932716       0.04330564       0.01374406
O       -0.42625656       2.75924355       4.28180099       48       0.00567048      -0.06416605       0.01081688
O        1.04798334      -0.07585512       6.20237650       49      -0.03317473      -0.05508615      -0.01086380
O       -1.17294689      -0.80803189       6.28015861       50      -0.00324891      -0.06212899      -0.01994137
O        1.24638404       1.12493657       4.20401888       51      -0.02462097      -0.05716422       0.01989280
O       -3.30977150       4.34019353       0.96028775       52      -0.00567131       0.06416625      -0.01082169
O        4.33297486       0.07585512       9.52388974       53       0.03316866       0.05508536       0.01086737
O       -4.20801131       0.80803190       9.44610763       54       0.00324847       0.06213054       0.01994741
O        4.68288421       1.24154246       1.03806987       55       0.02462435       0.05716904      -0.01989796
