4
Lattice="3.128588 0.0 0.0 -1.5642939988088433 2.709436998432005 0.0 0.0 0.0 5.016955" Properties=species:S:1:pos:R:3:spacegroup_kinds:I:1:forces:R:3 spacegroup="P 1" unit_cell=conventional occupancy="_JSON {\"0\": {\"Al\": 1}, \"1\": {\"Al\": 1}, \"2\": {\"N\": 1}, \"3\": {\"N\": 1}}" energy=-29.673717498779297 free_energy=-29.673717498779297 stress="-0.0022253047209233046 -1.2394763189149671e-06 -2.1329858768126542e-08 -1.2394763189149671e-06 -0.002227355958893895 8.258050243625803e-09 -2.1329858768126542e-08 8.258050243625803e-09 -0.005453691817820072" pbc="T T T"
Al       1.56429556       0.90314476       2.50490041        0      -0.00003386       0.00002010       0.00553137
Al      -0.00000156       1.80629224       5.01337791        1       0.00003339      -0.00001896       0.00552446
N        1.56429556       0.90314476       4.41849749        2      -0.00003493       0.00001954      -0.00553126
N       -0.00000156       1.80629224       1.91001999        3       0.00003540      -0.00002090      -0.00552463
