4
Lattice="3.128588 0.0 0.0 -1.5642939988088433 2.709436998432005 0.0 0.0 0.0 5.016955" Properties=species:S:1:pos:R:3:spacegroup_kinds:I:1:forces:R:3 spacegroup="P 1" unit_cell=conventional occupancy="_JSON {\"0\": {\"Al\": 1}, \"1\": {\"Al\": 1}, \"2\": {\"N\": 1}, \"3\": {\"N\": 1}}" energy=-29.673715591430664 free_energy=-29.673715591430664 stress="-0.0022255086805671453 -1.4056842019272153e-06 -4.661815822259996e-08 -1.4056842019272153e-06 -0.0022273436188697815 -4.2126757193727826e-08 -4.661815822259996e-08 -4.2126757193727826e-08 -0.005453547928482294" pbc="T T T"
Al       1.56429556       0.90314476       2.50490041        0      -0.00003410       0.00001977       0.00553327
Al      -0.00000156       1.80629224       5.01337791        1       0.00003646      -0.00001925       0.00552449
N        1.56429556       0.90314476       4.41849749        2      -0.00003845       0.00002003      -0.00553120
N       -0.00000156       1.80629224       1.91001999        3       0.00003621      -0.00002029      -0.00552654
