32
Lattice="6.17176593 0.0 0.0 0.0 8.01859859 0.0 0.0 0.0 13.03281824" Properties=species:S:1:pos:R:3:spacegroup_kinds:I:1:momenta:R:3:forces:R:3 spacegroup="P 1" unit_cell=conventional occupancy="_JSON {\"0\": {\"Li\": 1}, \"1\": {\"Li\": 1}, \"2\": {\"Li\": 1}, \"3\": {\"Li\": 1}, \"4\": {\"Li\": 1}, \"5\": {\"Li\": 1}, \"6\": {\"Li\": 1}, \"7\": {\"Li\": 1}, \"8\": {\"Li\": 1}, \"9\": {\"Li\": 1}, \"10\": {\"Li\": 1}, \"11\": {\"Li\": 1}, \"12\": {\"P\": 1}, \"13\": {\"P\": 1}, \"14\": {\"P\": 1}, \"15\": {\"P\": 1}, \"16\": {\"S\": 1}, \"17\": {\"S\": 1}, \"18\": {\"S\": 1}, \"19\": {\"S\": 1}, \"20\": {\"S\": 1}, \"21\": {\"S\": 1}, \"22\": {\"S\": 1}, \"23\": {\"S\": 1}, \"24\": {\"S\": 1}, \"25\": {\"S\": 1}, \"26\": {\"S\": 1}, \"27\": {\"S\": 1}, \"28\": {\"S\": 1}, \"29\": {\"S\": 1}, \"30\": {\"S\": 1}, \"31\": {\"S\": 1}}" energy=-140.12994384765625 free_energy=-140.12994384765625 stress="0.0017934549832716584 -0.0010266947792842984 -0.0009091223473660648 -0.0010266947792842984 -0.00020153538207523525 0.0008335218881256878 -0.0009091223473660648 0.0008335218881256878 -0.0008816260960884392" pbc="T T T"
Li       2.53074656       0.34044007       4.36125912        0       0.40822324       0.19888424      -0.03116617      -0.23073035      -0.04499307      -0.06365986
Li       3.81207667       7.82549957       8.68478661        1       0.00057308       0.19616465      -0.27606062      -0.12524450      -0.23531148       0.03096171
Li       5.50935499       7.85366317       2.16839197        2       0.04775705      -0.36422266       0.14205603      -0.04665712      -0.17570972       0.07981715
Li       0.62651685       0.24972083      10.87295591        3       0.23168697       0.14332545       0.01308557       0.04744297      -0.01028507      -0.02913275
Li       3.72292586       4.21469239       8.72028564        4       0.10261068      -0.12932574      -0.15581629       0.18776765       0.18986852      -0.07722846
Li       2.39689390       3.74940094       4.31603236        5       0.22157994       0.18153225      -0.01586790       0.01950534       0.07557050       0.06269170
Li       0.77206302       3.76361935      10.89831458        6       0.10685142      -0.05384525      -0.06095338      -0.09947378      -0.07908697      -0.11993015
Li       5.37572436       4.26170902       2.19797944        7      -0.26220627      -0.20767879       0.04082783       0.11984135      -0.01143594      -0.05050235
Li       3.06353378      -0.05305557       0.06815028        8       0.17965446      -0.05547899       0.06114310       0.07499504      -0.00950206      -0.21749961
Li      -0.01537802       0.01462530       6.50034233        9       0.23162765       0.05716823      -0.10813148       0.10498445       0.02312370       0.06110068
Li       3.04190509       4.02160600      -0.08899971       10       0.11097437      -0.26225347       0.05474411      -0.06165323       0.00050619       0.17180410
Li       0.05913272       3.96868874       6.46497884       11      -0.04855646      -0.05624675      -0.31028734      -0.06485665       0.12315601       0.04510986
P        0.95878568       2.02235038       1.14883124       12       0.61820549       0.05923131      -0.38253234       0.11550474      -0.33696961      -0.01110716
P        5.20134624       5.97121847      11.85027107       13      -0.22307667      -0.80164176       0.35085525       0.24474247       0.13388111       0.06448878
P        4.03149641       6.00872911       5.38003812       14       0.47847084       0.20881463       0.38860894      -0.19624816       0.08800831      -0.27959180
P        2.14783563       2.02204983       7.69943866       15      -0.29106069      -0.01309648      -0.02328285      -0.22170666      -0.07290366      -0.08491568
S        5.10258532       2.03114328       1.25577849       16       0.35007485       0.14439360      -0.65366083      -0.22450808      -0.09286792       0.00407871
S        1.10885312       6.00173895      11.71790654       17       0.41162241      -0.36075665       0.21545482      -0.56057245       0.01031280       0.02500284
S        1.97418301       6.06069689       5.25777456       18      -0.01640099       1.03510459       0.15293170       0.45887873      -0.13620290      -0.10547301
S        4.21043674       1.98431902       7.82715205       19      -0.02619789      -0.01423273       0.06343686      -0.48526156       0.15228716      -0.02426498
S        1.68401143       1.94338359      12.21719589       20      -0.63206633      -0.71412508      -0.32746141       0.11021862       0.22638309       0.22918926
S        4.48137408       6.00829124       0.80916950       21       0.07421522       0.23220123      -0.26903899       0.04389647      -0.00102606      -0.49291939
S        4.81774008       6.01844485       7.28481140       22       0.54960682      -0.37680063      -0.10171538      -0.04297495      -0.15104547       0.34052330
S        1.38760314       2.02282242       5.71923688       23      -0.20240951       0.31497698       0.23545930       0.21106708      -0.02986194       0.33604792
S        1.71534218       0.27785939       1.98786259       24       0.72296676      -0.24599109      -0.08410063      -0.16684060       0.23950215       0.15986519
S        4.45170586       7.72525479      11.01602274       25      -1.27950442      -0.25481365      -0.05601390       0.08450346      -0.44293058       0.23368748
S        4.79437127       7.74957613       4.56087597       26      -0.22371794       0.07261345       0.87052597       0.02577497      -0.12697011      -0.23603478
S        1.32098631       0.31139238       8.53573406       27      -1.02546105       0.82294231       0.04356611       0.40789652       0.29267937      -0.12954977
S        4.49573654       4.20728298      11.00472787       28       0.27189377      -0.87056100      -0.17570105       0.19827807       0.43346772       0.22178879
S        1.63800037       3.72783989       2.03163382       29      -0.67837489      -0.01712521       0.34718672       0.17261641       0.16252357      -0.19055647
S        1.39716288       3.77613945       8.51960944       30      -0.40543716       0.73605693       0.39903520       0.12893084      -0.34233779      -0.09873149
S        4.79036003       4.29049811       4.50508645       31       0.19587527       0.39478605      -0.34712687      -0.23011729       0.14817002       0.14494038
