32
Lattice="6.17176593 0.0 0.0 0.0 8.01859859 0.0 0.0 0.0 13.03281824" Properties=species:S:1:pos:R:3:spacegroup_kinds:I:1:momenta:R:3:forces:R:3 spacegroup="P 1" unit_cell=conventional occupancy="_JSON {\"0\": {\"Li\": 1}, \"1\": {\"Li\": 1}, \"2\": {\"Li\": 1}, \"3\": {\"Li\": 1}, \"4\": {\"Li\": 1}, \"5\": {\"Li\": 1}, \"6\": {\"Li\": 1}, \"7\": {\"Li\": 1}, \"8\": {\"Li\": 1}, \"9\": {\"Li\": 1}, \"10\": {\"Li\": 1}, \"11\": {\"Li\": 1}, \"12\": {\"P\": 1}, \"13\": {\"P\": 1}, \"14\": {\"P\": 1}, \"15\": {\"P\": 1}, \"16\": {\"S\": 1}, \"17\": {\"S\": 1}, \"18\": {\"S\": 1}, \"19\": {\"S\": 1}, \"20\": {\"S\": 1}, \"21\": {\"S\": 1}, \"22\": {\"S\": 1}, \"23\": {\"S\": 1}, \"24\": {\"S\": 1}, \"25\": {\"S\": 1}, \"26\": {\"S\": 1}, \"27\": {\"S\": 1}, \"28\": {\"S\": 1}, \"29\": {\"S\": 1}, \"30\": {\"S\": 1}, \"31\": {\"S\": 1}}" energy=-140.31869506835938 free_energy=-140.31869506835938 stress="-0.007170637138187885 5.504552369473004e-10 5.559229965257373e-09 5.504552369473004e-10 -0.008259415626525879 5.973190830843578e-09 5.559229965257373e-09 5.973190830843578e-09 -0.005266315769404173" pbc="T T T"
Li       2.40329652       0.26860172       4.33400832        0       0.00000000       0.00000000       0.00000000      -0.02603518       0.00549137      -0.00432149
Li       3.76846941       7.74999687       8.69880992        1       0.00000000       0.00000000       0.00000000       0.02603628      -0.00549180       0.00432319
Li       5.48917948       7.74999687       2.18240080        2       0.00000000       0.00000000       0.00000000      -0.02603596      -0.00549064       0.00432328
Li       0.68258645       0.26860172      10.85041744        3       0.00000000       0.00000000       0.00000000       0.02603493       0.00549205      -0.00431906
Li       3.76846941       4.27790102       8.69880992        4       0.00000000       0.00000000       0.00000000       0.02603592       0.00549148       0.00432263
Li       2.40329652       3.74069757       4.33400832        5       0.00000000       0.00000000       0.00000000      -0.02603577      -0.00549144      -0.00432165
Li       0.68258645       3.74069757      10.85041744        6       0.00000000       0.00000000       0.00000000       0.02603652      -0.00549192      -0.00431958
Li       5.48917948       4.27790102       2.18240080        7       0.00000000       0.00000000       0.00000000      -0.02603558       0.00549120       0.00432254
Li       3.08588297       0.00000000       0.00000000        8       0.00000000       0.00000000       0.00000000      -0.00000106      -0.00000221      -0.00000090
Li       0.00000000       0.00000000       6.51640912        9       0.00000000       0.00000000       0.00000000       0.00000122      -0.00000151      -0.00000019
Li       3.08588297       4.00929929       0.00000000       10       0.00000000       0.00000000       0.00000000       0.00000003       0.00000100       0.00000006
Li       0.00000000       4.00929929       6.51640912       11       0.00000000       0.00000000       0.00000000       0.00000014       0.00000113      -0.00000005
P        0.94051010       2.00464965       1.16601784       12       0.00000000       0.00000000       0.00000000      -0.02067199       0.00000018       0.02376056
P        5.23125583       6.01394894      11.86680040       13       0.00000000       0.00000000       0.00000000       0.02066591       0.00000053      -0.02375998
P        4.02639307       6.01394894       5.35039128       14       0.00000000       0.00000000       0.00000000      -0.02066735       0.00000130      -0.02375743
P        2.14537286       2.00464965       7.68242696       15       0.00000000       0.00000000       0.00000000       0.02066777       0.00000019       0.02375775
S        5.08970823       2.00464965       1.30575389       16       0.00000000       0.00000000       0.00000000      -0.25450659       0.00000015       0.01679052
S        1.08205770       6.01394894      11.72706435       17       0.00000000       0.00000000       0.00000000       0.25450769      -0.00000074      -0.01679219
S        2.00382526       6.01394894       5.21065523       18       0.00000000       0.00000000       0.00000000      -0.25450605      -0.00000009      -0.01679204
S        4.16794067       2.00464965       7.82216301       19       0.00000000       0.00000000       0.00000000       0.25450107      -0.00000052       0.01679053
S        1.68132889       2.00464965      12.25955363       20       0.00000000       0.00000000       0.00000000       0.10912280      -0.00000013      -0.16719635
S        4.49043704       6.01394894       0.77326461       21       0.00000000       0.00000000       0.00000000      -0.10912085       0.00000014       0.16718173
S        4.76721186       6.01394894       7.28967373       22       0.00000000       0.00000000       0.00000000       0.10912054       0.00000030       0.16717915
S        1.40455407       2.00464965       5.74314451       23       0.00000000       0.00000000       0.00000000      -0.10911969       0.00000015      -0.16718128
S        1.67233151       0.29287049       2.00524453       24       0.00000000       0.00000000       0.00000000       0.13957803      -0.21272625       0.08709942
S        4.49943442       7.72572810      11.02757371       25       0.00000000       0.00000000       0.00000000      -0.13957560       0.21272466      -0.08709190
S        4.75821447       7.72572810       4.51116459       26       0.00000000       0.00000000       0.00000000       0.13957544       0.21272448      -0.08709158
S        1.41355146       0.29287049       8.52165365       27       0.00000000       0.00000000       0.00000000      -0.13957591      -0.21272206       0.08709172
S        4.49943442       4.30216979      11.02757371       28       0.00000000       0.00000000       0.00000000      -0.13957629      -0.21272482      -0.08709395
S        1.67233151       3.71642880       2.00524453       29       0.00000000       0.00000000       0.00000000       0.13957894       0.21272694       0.08709967
S        1.41355146       3.71642880       8.52165365       30       0.00000000       0.00000000       0.00000000      -0.13957521       0.21272111       0.08709168
S        4.75821447       4.30216979       4.51116459       31       0.00000000       0.00000000       0.00000000       0.13957572      -0.21272421      -0.08709496
32
Lattice="6.17176593 0.0 0.0 0.0 8.01859859 0.0 0.0 0.0 13.03281824" Properties=species:S:1:pos:R:3:spacegroup_kinds:I:1:momenta:R:3:forces:R:3 spacegroup="P 1" unit_cell=conventional occupancy="_JSON {\"0\": {\"Li\": 1}, \"1\": {\"Li\": 1}, \"2\": {\"Li\": 1}, \"3\": {\"Li\": 1}, \"4\": {\"Li\": 1}, \"5\": {\"Li\": 1}, \"6\": {\"Li\": 1}, \"7\": {\"Li\": 1}, \"8\": {\"Li\": 1}, \"9\": {\"Li\": 1}, \"10\": {\"Li\": 1}, \"11\": {\"Li\": 1}, \"12\": {\"P\": 1}, \"13\": {\"P\": 1}, \"14\": {\"P\": 1}, \"15\": {\"P\": 1}, \"16\": {\"S\": 1}, \"17\": {\"S\": 1}, \"18\": {\"S\": 1}, \"19\": {\"S\": 1}, \"20\": {\"S\": 1}, \"21\": {\"S\": 1}, \"22\": {\"S\": 1}, \"23\": {\"S\": 1}, \"24\": {\"S\": 1}, \"25\": {\"S\": 1}, \"26\": {\"S\": 1}, \"27\": {\"S\": 1}, \"28\": {\"S\": 1}, \"29\": {\"S\": 1}, \"30\": {\"S\": 1}, \"31\": {\"S\": 1}}" energy=-140.32012939453125 free_energy=-140.32012939453125 stress="-0.006998700089752674 -7.032399025774794e-06 -1.3969405699754134e-05 -7.032399025774794e-06 -0.008179436437785625 6.363081047311425e-05 -1.3969405699754134e-05 6.363081047311425e-05 -0.00514934491366148" pbc="T T T"
Li       2.40418149       0.26764882       4.33427618        0       0.00354510      -0.03892621       0.02490488      -0.02957027       0.00936284      -0.00568106
Li       3.76827995       7.75173908       8.69951113        1      -0.06523634       0.08753186       0.02683755       0.02900406      -0.01077781       0.00141885
Li       5.48732756       7.74894851       2.18211178        2      -0.03814898      -0.05938262      -0.11682170      -0.02073448      -0.00011011       0.00404494
Li       0.68219644       0.26788744      10.85168485        3       0.01993319      -0.01870318       0.04093128       0.02810219       0.00778495      -0.00594142
Li       3.76927056       4.27856675       8.69844364        4       0.02880677       0.02579705      -0.02107326       0.02569967       0.00165263       0.00401612
Li       2.40332438       3.73891220       4.33094869        5       0.01739233      -0.14625591      -0.13045632      -0.02469661      -0.00299963       0.00158589
Li       0.68325380       3.74160023      10.84887392        6       0.06808470       0.03778889      -0.05844995       0.02639499      -0.00729368      -0.00077322
Li       5.48783439       4.27991250       2.18264466        7      -0.05382882       0.07146748       0.03745419      -0.02162794       0.00101963       0.00510591
Li       3.08600823       0.00039329       0.00022043        8      -0.01245443       0.00481781       0.00430553      -0.00130294      -0.00008342       0.00213338
Li       0.00232732       0.00073431       6.51857319        9       0.06736663       0.03263382       0.14475228      -0.00657015      -0.00229612      -0.00744469
Li       3.08736946       4.01110344      -0.00110389       10       0.03667378       0.12858424      -0.03620258      -0.00600847      -0.00406213       0.00526679
Li       0.00178552       4.01218992       6.51521975       11       0.10411079       0.13024618      -0.01713989       0.00101026      -0.00248165      -0.00128699
P        0.93974670       2.00478447       1.16610602       12      -0.10604365       0.03552876       0.05935943      -0.00662884      -0.00821770       0.02060176
P        5.23055913       6.01426014      11.86613670       13      -0.19966793       0.00399613      -0.22384462       0.03526033      -0.03065364      -0.00122694
P        4.02509879       6.01488715       5.35038565       14      -0.02160687       0.19239273       0.00637252      -0.00412020      -0.01413881      -0.03712211
P        2.14531484       2.00485280       7.68291411       15       0.03957678       0.03905492       0.02676796       0.04527611       0.00479391       0.00399780
S        5.08959091       2.00590991       1.30551876       16      -0.05041168       0.28701459       0.00195252      -0.26233500      -0.00459312       0.01734795
S        1.08236115       6.01445267      11.72677412       17      -0.08321505       0.13203633       0.02066697       0.23943813      -0.00313116      -0.01762473
S        2.00184630       6.01413239       5.21141898       18      -0.32841420       0.08193623       0.10133870      -0.23620301      -0.00082206      -0.01744860
S        4.16914646       2.00342444       7.82277044       19       0.17729723      -0.22487116      -0.11038026       0.23518811       0.00628657       0.01473430
S        1.68130717       2.00387196      12.25930209       20       0.01285536      -0.04870945      -0.04869755       0.10673600       0.00479248      -0.16295302
S        4.49099953       6.01382380       0.77485255       21       0.03925859      -0.07078600       0.49213806      -0.10848060       0.00122883       0.14009470
S        4.76833456       6.01279336       7.28937579       22       0.20685450      -0.28151765      -0.04647769       0.10120742       0.01032427       0.16208535
S        1.40356352       2.00471473       5.74324927       23      -0.29447578       0.05799204       0.06460180      -0.10167743      -0.00032033      -0.16028783
S        1.67229031       0.29246717       2.00500228       24       0.00996159      -0.12478898      -0.09602293       0.13264391      -0.20650920       0.08654118
S        4.49962856       7.72497160      11.02808978       25       0.08940739      -0.11345185       0.07836328      -0.14898264       0.22721508      -0.09516118
S        4.75883044       7.72683478       4.51018123       26       0.16514301       0.21248966      -0.13329673       0.12871090       0.19326048      -0.07086144
S        1.41432741       0.29400958       8.52185774       27       0.10725100       0.16810230       0.01893319      -0.14796187      -0.22897553       0.09960094
S        4.49920735       4.30053611      11.02758743       28      -0.01847956      -0.38525610      -0.01753352      -0.13137406      -0.19340137      -0.08156204
S        1.67193632       3.71610446       2.00549900       29      -0.08489821      -0.11405381       0.03838426       0.14037526       0.21646982       0.08118658
S        1.41429244       3.71638249       8.52127518       30       0.09919488       0.00034068      -0.09573696      -0.14144325       0.22320867       0.09074129
S        4.75817167       4.30153120       4.51047482       31       0.06416785      -0.10304879      -0.03593044       0.12467039      -0.18653268      -0.07512839
32
Lattice="6.17176593 0.0 0.0 0.0 8.01859859 0.0 0.0 0.0 13.03281824" Properties=species:S:1:pos:R:3:spacegroup_kinds:I:1:momenta:R:3:forces:R:3 spacegroup="P 1" unit_cell=conventional occupancy="_JSON {\"0\": {\"Li\": 1}, \"1\": {\"Li\": 1}, \"2\": {\"Li\": 1}, \"3\": {\"Li\": 1}, \"4\": {\"Li\": 1}, \"5\": {\"Li\": 1}, \"6\": {\"Li\": 1}, \"7\": {\"Li\": 1}, \"8\": {\"Li\": 1}, \"9\": {\"Li\": 1}, \"10\": {\"Li\": 1}, \"11\": {\"Li\": 1}, \"12\": {\"P\": 1}, \"13\": {\"P\": 1}, \"14\": {\"P\": 1}, \"15\": {\"P\": 1}, \"16\": {\"S\": 1}, \"17\": {\"S\": 1}, \"18\": {\"S\": 1}, \"19\": {\"S\": 1}, \"20\": {\"S\": 1}, \"21\": {\"S\": 1}, \"22\": {\"S\": 1}, \"23\": {\"S\": 1}, \"24\": {\"S\": 1}, \"25\": {\"S\": 1}, \"26\": {\"S\": 1}, \"27\": {\"S\": 1}, \"28\": {\"S\": 1}, \"29\": {\"S\": 1}, \"30\": {\"S\": 1}, \"31\": {\"S\": 1}}" energy=-140.32301330566406 free_energy=-140.32301330566406 stress="-0.0066578928381204605 6.137525360827567e-06 -0.00012624470400623977 6.137525360827567e-06 -0.007876221090555191 0.00020164948364254087 -0.00012624470400623977 0.00020164948364254087 -0.004801554139703512" pbc="T T T"
Li       2.40499590       0.26661193       4.33501608        0       0.04264548      -0.05296145       0.05950309      -0.03095563       0.01203545      -0.00784763
Li       3.76661559       7.75346684       8.70187145        1      -0.01555090       0.00775834       0.10873840       0.03298862      -0.01820347      -0.00599667
Li       5.48594804       7.74824627       2.17711623        2      -0.02264658       0.01428953      -0.11555933      -0.01623749       0.00637002       0.01284913
Li       0.68236521       0.26384151      10.85252365        3       0.00183877      -0.14443367       0.01134092       0.03321572       0.01996407      -0.00476936
Li       3.76910495       4.27800113       8.70129723        4       0.00930609      -0.00615096       0.14261678       0.02740378      -0.00047052      -0.00475552
Li       2.40334641       3.73375519       4.32734922        5       0.00264180      -0.14983645      -0.08688928      -0.01904991       0.00744667       0.00862781
Li       0.68574305       3.74214752      10.84838606        6       0.13222518       0.03599121       0.02223877       0.02434613      -0.00774545       0.00142637
Li       5.48639871       4.28270297       2.18408085        7       0.00489078       0.05748567       0.03027671      -0.01679162      -0.00707605       0.00507757
Li       3.08688885      -0.00008495       0.00042047        8       0.05766600      -0.03643869       0.08789298      -0.00434397       0.00194747       0.00848891
Li       0.00553758       0.00103418       6.52256488        9       0.05997305       0.05783398       0.06865488      -0.01509727      -0.00549050      -0.01954780
Li       3.08713796       4.01788663      -0.00264918       10       0.01224522       0.19435418      -0.11013567      -0.01287004      -0.01085271       0.01257662
Li       0.00431451       4.01480088       6.51545759       11       0.01273039      -0.00709367       0.00742594      -0.00139899      -0.00399451      -0.00835264
P        0.93966807       2.00481065       1.16568637       12       0.05033015      -0.04004221      -0.09194454      -0.00530350      -0.01029439       0.01332413
P        5.22819942       6.01528799      11.86307199       13      -0.38046411       0.22416370      -0.38021893       0.05191994      -0.08903363       0.07687706
P        4.02419817       6.01650221       5.35166743       14      -0.19495845       0.17514100       0.22216736       0.01768661      -0.04437600      -0.08238978
P        2.14559207       2.00552398       7.68370541       15       0.04433201       0.15560781       0.17407869       0.05630656       0.00272677      -0.02451141
S        5.08899400       2.00713266       1.30454672       16      -0.03687890       0.15235964      -0.15888071      -0.24942634      -0.00704655       0.01560193
S        1.08153822       6.01597975      11.72678048       17      -0.15845626       0.23456286      -0.12865489       0.22018138      -0.01237616      -0.02071109
S        1.99985276       6.01439736       5.21337801       18      -0.22690682      -0.01047119       0.32855176      -0.20779474      -0.00314303      -0.01975515
S        4.17079377       2.00066743       7.82218200       19       0.21433550      -0.53275693      -0.11542062       0.20684762       0.01808429       0.01641753
S        1.68241535       2.00343782      12.25793324       20       0.19116759       0.00412335      -0.27748568       0.10029649       0.00560992      -0.14816222
S        4.49125544       6.01367603       0.77919609       21       0.03003783      -0.04054243       0.59605553      -0.09921659       0.00192299       0.05302111
S        4.76953638       6.01115543       7.28929281       22       0.12906186      -0.10974965       0.05152013       0.09455028       0.02166659       0.17252021
S        1.40063932       2.00496408       5.74299738       23      -0.44874717      -0.08998495      -0.07008553      -0.08541667      -0.00437183      -0.13280758
S        1.67246907       0.29171632       2.00423141       24       0.07814222      -0.11939636      -0.11079686       0.12672485      -0.19529963       0.08513097
S        4.49998433       7.72517150      11.02876093       25       0.06528338       0.09909770       0.02068450      -0.16775084       0.24828288      -0.10999864
S        4.76128755       7.72809621       4.50881653       26       0.45439173       0.24443126      -0.12117977       0.10900655       0.16192964      -0.04920204
S        1.41439820       0.29512320       8.52342062       27      -0.00438306       0.11386073       0.21849608      -0.14890510      -0.23046353       0.10325512
S        4.49914036       4.29718267      11.02647610       28      -0.06651930      -0.44336662      -0.25329354      -0.11839122      -0.15399562      -0.06326461
S        1.67170691       3.71643747       2.00549323       29      -0.08353083       0.13974996      -0.05486634       0.13727999       0.21037485       0.07120302
S        1.41450523       3.71745795       8.52072981       30      -0.01778536       0.20593796      -0.01659282      -0.13480079       0.22203043       0.09362532
S        4.75936943       4.29980843       4.51001406       31       0.06358270      -0.33352367      -0.05823801       0.09499615      -0.13615857      -0.04795060
32
Lattice="6.17176593 0.0 0.0 0.0 8.01859859 0.0 0.0 0.0 13.03281824" Properties=species:S:1:pos:R:3:spacegroup_kinds:I:1:momenta:R:3:forces:R:3 spacegroup="P 1" unit_cell=conventional occupancy="_JSON {\"0\": {\"Li\": 1}, \"1\": {\"Li\": 1}, \"2\": {\"Li\": 1}, \"3\": {\"Li\": 1}, \"4\": {\"Li\": 1}, \"5\": {\"Li\": 1}, \"6\": {\"Li\": 1}, \"7\": {\"Li\": 1}, \"8\": {\"Li\": 1}, \"9\": {\"Li\": 1}, \"10\": {\"Li\": 1}, \"11\": {\"Li\": 1}, \"12\": {\"P\": 1}, \"13\": {\"P\": 1}, \"14\": {\"P\": 1}, \"15\": {\"P\": 1}, \"16\": {\"S\": 1}, \"17\": {\"S\": 1}, \"18\": {\"S\": 1}, \"19\": {\"S\": 1}, \"20\": {\"S\": 1}, \"21\": {\"S\": 1}, \"22\": {\"S\": 1}, \"23\": {\"S\": 1}, \"24\": {\"S\": 1}, \"25\": {\"S\": 1}, \"26\": {\"S\": 1}, \"27\": {\"S\": 1}, \"28\": {\"S\": 1}, \"29\": {\"S\": 1}, \"30\": {\"S\": 1}, \"31\": {\"S\": 1}}" energy=-140.325439453125 free_energy=-140.325439453125 stress="-0.006172036752104759 4.548733704723418e-05 -0.0002804743417073041 4.548733704723418e-05 -0.007335038855671883 0.0003695810155477375 -0.0002804743417073041 0.0003695810155477375 -0.004402645397931337" pbc="T T T"
Li       2.40703991       0.26699491       4.33805109        0       0.09865761       0.07877250       0.08249061      -0.03071342       0.01030677      -0.01314736
Li       3.76628125       7.75595344       8.70498423        1      -0.01851903       0.07732958       0.03121953       0.03182800      -0.02700103      -0.01342464
Li       5.48595469       7.75193659       2.17403025        2       0.07251420       0.22952122      -0.07325149      -0.01659969       0.00414025       0.01966752
Li       0.68229724       0.25822615      10.85303646        3       0.01164528      -0.22657530       0.00227094       0.04076190       0.03628092      -0.00253247
Li       3.76987515       4.27555542       8.70722997        4       0.03039272      -0.09441207       0.12252207       0.02951623       0.00126568      -0.02134650
Li       2.40129047       3.72820839       4.32485725        5      -0.03851817      -0.06901944      -0.04985349      -0.01008399       0.01907598       0.01282857
Li       0.69222099       3.74394593      10.84971418        6       0.18187548       0.05493649      -0.03765012       0.01285420      -0.00978060       0.00119841
Li       5.48719031       4.28406538       2.18586067        7       0.00170523       0.02903575       0.04778887      -0.01924090      -0.01031054       0.00497273
Li       3.08888289      -0.00401659       0.00403947        8       0.03048710      -0.18663493       0.10837756      -0.00799518       0.00995879       0.00565992
Li       0.00730054       0.00395897       6.52536579        9       0.06977697       0.03400569       0.03267943      -0.02384337      -0.01098101      -0.02736156
Li       3.08828618       4.02479298      -0.00769756       10       0.00899312       0.16541218      -0.17574824      -0.02485937      -0.02139207       0.02868479
Li       0.00595242       4.01541780       6.51767250       11       0.04649655       0.05071877       0.03024415      -0.00913375      -0.00334551      -0.02080911
P        0.94068620       2.00442969       1.16588788       12       0.21186703      -0.03362336       0.13994399      -0.01748560       0.00515750      -0.02335686
P        5.22537006       6.01672076      11.86017181       13      -0.41917062       0.06041705      -0.30112991       0.06845579      -0.15277861       0.13648832
P        4.02236338       6.01729635       5.35382932       14      -0.31449033       0.06958589       0.12929870       0.06415556      -0.06712078      -0.14899997
P        2.14542303       2.00693806       7.68484294       15       0.05273764       0.19490276       0.06959086       0.06994378      -0.01877165      -0.04309345
S        5.08809610       2.00887157       1.30282752       16      -0.11870764       0.16292290      -0.25359453      -0.21669398      -0.01222932       0.01493353
S        1.08053028       6.01700392      11.72603966       17      -0.12032826       0.08823889      -0.00410820       0.19705664      -0.02066167      -0.02024056
S        1.99801544       6.01467061       5.21627380       18      -0.21500413       0.13516025       0.40898243      -0.19166380      -0.00540864      -0.02521456
S        4.17319501       1.99637096       7.82100068       19       0.38981261      -0.56042763      -0.10963387       0.15872791       0.03907104       0.01981179
S        1.68377173       2.00252313      12.25516504       20       0.07662521      -0.24322543      -0.35236841       0.09109584       0.00253646      -0.10794479
S        4.49151305       6.01413164       0.78322752       21      -0.01564763       0.05624994       0.50461454      -0.08663814       0.00096989      -0.02393459
S        4.77012443       6.01049830       7.28868826       22      -0.02163428       0.03620380      -0.09437672       0.09157474       0.02494056       0.19577630
S        1.39749580       2.00339517       5.74272120       23      -0.45070707      -0.28942845      -0.06840240      -0.06935480       0.00155160      -0.09973729
S        1.67397498       0.29102965       2.00325467       24       0.28910338      -0.02067967      -0.12133644       0.12065821      -0.18635887       0.09356589
S        4.50074475       7.72647170      11.02930290       25       0.03920122       0.18430640       0.14944686      -0.18700872       0.25990087      -0.11780331
S        4.76423414       7.72993453       4.50787324       26       0.41703724       0.26410560       0.03745937       0.07964312       0.11282001      -0.02298252
S        1.41341794       0.29549049       8.52556089       27      -0.17497778       0.12572902       0.18899076      -0.13828222      -0.20758872       0.09591750
S        4.49784126       4.29328853      11.02469609       28      -0.19783223      -0.66915870      -0.15813313      -0.08882370      -0.09985516      -0.03531699
S        1.67085046       3.71798954       2.00500259       29      -0.07622783       0.15293578      -0.05360991       0.14119732       0.19465938       0.05820673
S        1.41418984       3.72056069       8.51962773       30      -0.06838741       0.52021760      -0.30370904      -0.11700036       0.20425642       0.09263291
S        4.76041519       4.29668830       4.50951725       31       0.22122382      -0.37752310       0.07098526       0.05795179      -0.07330791      -0.01309850
32
Lattice="6.17176593 0.0 0.0 0.0 8.01859859 0.0 0.0 0.0 13.03281824" Properties=species:S:1:pos:R:3:spacegroup_kinds:I:1:momenta:R:3:forces:R:3 spacegroup="P 1" unit_cell=conventional occupancy="_JSON {\"0\": {\"Li\": 1}, \"1\": {\"Li\": 1}, \"2\": {\"Li\": 1}, \"3\": {\"Li\": 1}, \"4\": {\"Li\": 1}, \"5\": {\"Li\": 1}, \"6\": {\"Li\": 1}, \"7\": {\"Li\": 1}, \"8\": {\"Li\": 1}, \"9\": {\"Li\": 1}, \"10\": {\"Li\": 1}, \"11\": {\"Li\": 1}, \"12\": {\"P\": 1}, \"13\": {\"P\": 1}, \"14\": {\"P\": 1}, \"15\": {\"P\": 1}, \"16\": {\"S\": 1}, \"17\": {\"S\": 1}, \"18\": {\"S\": 1}, \"19\": {\"S\": 1}, \"20\": {\"S\": 1}, \"21\": {\"S\": 1}, \"22\": {\"S\": 1}, \"23\": {\"S\": 1}, \"24\": {\"S\": 1}, \"25\": {\"S\": 1}, \"26\": {\"S\": 1}, \"27\": {\"S\": 1}, \"28\": {\"S\": 1}, \"29\": {\"S\": 1}, \"30\": {\"S\": 1}, \"31\": {\"S\": 1}}" energy=-140.3250274658203 free_energy=-140.3250274658203 stress="-0.005569847300648689 0.0001422497007297352 -0.0004008178075309843 0.0001422497007297352 -0.006803624797612429 0.0006128883105702698 -0.0004008178075309843 0.0006128883105702698 -0.003968954086303711" pbc="T T T"
Li       2.41293431       0.26888736       4.34157851        0       0.17915962       0.07064630       0.08068964      -0.03707566       0.00756121      -0.02103353
Li       3.76620145       7.75772118       8.70547527        1       0.00718572       0.03943530       0.06377607       0.02853602      -0.03212040      -0.01719140
Li       5.48861296       7.76285431       2.17236792        2       0.09890012       0.36642926      -0.01638748      -0.02699843      -0.01631616       0.02493115
Li       0.67812860       0.24897308      10.85370815        3      -0.21148544      -0.23892383       0.04453859       0.05839078       0.06326659      -0.00115853
Li       3.77066257       4.27154044       8.71289912        4      -0.06016690      -0.16658375       0.27833162       0.03371218       0.00840257      -0.03716291
Li       2.40037600       3.72467109       4.32524527        5      -0.05139604      -0.15021804       0.01900653      -0.00447168       0.02572991       0.01133519
Li       0.69824297       3.74443260      10.84945550        6       0.21525161       0.03529643       0.04600845       0.00224249      -0.01134394       0.00548610
Li       5.48457641       4.28440481       2.18778418        7      -0.09153069       0.00665800       0.07339724      -0.01494821      -0.01278698       0.00511597
Li       3.09035640      -0.01218897       0.00665381        8       0.04981057      -0.32451070       0.03084937      -0.01774186       0.02246332       0.00275103
Li       0.01056068       0.00438646       6.52717194        9       0.11912739       0.01187960       0.06488526      -0.03059291      -0.01523124      -0.03382361
Li       3.09056186       4.03035310      -0.01415216       10       0.09669509       0.18805793      -0.19436037      -0.04112365      -0.03437884       0.04744893
Li       0.00812146       4.01492652       6.51761448       11       0.08627681      -0.05892268      -0.03939855      -0.01807958      -0.00157043      -0.02823181
P        0.94130737       2.00387765       1.16710254       12      -0.02608946       0.06137707       0.17289039      -0.01873721       0.03617358      -0.08674860
P        5.22291821       6.01812430      11.85795264       13      -0.29067547       0.12118507      -0.28162589       0.09257521      -0.23665699       0.18489192
P        4.01984596       6.01808566       5.35588404       14      -0.19907747       0.14475428       0.20255220       0.11961270      -0.08536527      -0.19963981
P        2.14481869       2.00945229       7.68566480       15      -0.18710629       0.37872419       0.08992266       0.09861803      -0.04792517      -0.06367766
S        5.08666389       2.01025791       1.29969277       16      -0.17461887       0.25517912      -0.53982777      -0.18633430      -0.01254692       0.01674809
S        1.08073313       6.01810442      11.72489625       17       0.14235658       0.04431222      -0.32026674       0.15915878      -0.03463327      -0.01757789
S        1.99588803       6.01503434       5.21967978       18      -0.26840970       0.04305405       0.40063163      -0.17939501      -0.00499730      -0.03300507