4
Lattice="3.128588 0.0 0.0 -1.5642939988088433 2.709436998432005 0.0 0.0 0.0 5.016955" Properties=species:S:1:pos:R:3:spacegroup_kinds:I:1:forces:R:3 spacegroup="P 1" unit_cell=conventional occupancy="_JSON {\"0\": {\"Al\": 1}, \"1\": {\"Al\": 1}, \"2\": {\"N\": 1}, \"3\": {\"N\": 1}}" energy=-29.673717498779297 free_energy=-29.673717498779297 stress="-0.002225357573479414 -1.254757194146805e-06 -4.381573504019798e-08 -1.254757194146805e-06 -0.0022274726070463657 -1.987287889804179e-09 -4.381573504019798e-08 -1.987287889804179e-09 -0.005453705321997404" pbc="T T T"
Al       1.56429556       0.90314476       2.50490041        0      -0.00003298       0.00002029       0.00553165
Al      -0.00000156       1.80629224       5.01337791        1       0.00003384      -0.00002057       0.00552376
N        1.56429556       0.90314476       4.41849749        2      -0.00003564       0.00002121      -0.00552987
N       -0.00000156       1.80629224       1.91001999        3       0.00003465      -0.00002114      -0.00552546
