56
Lattice="10.7619164 0.0 0.0 -9.665296305262016 4.732958053065482 0.0 -0.5483100463354086 -2.3664790220718444 10.484177494289693" Properties=species:S:1:pos:R:3:spacegroup_kinds:I:1:momenta:R:3:forces:R:3 spacegroup="P 1" unit_cell=conventional occupancy="_JSON {\"0\": {\"H\": 1}, \"1\": {\"H\": 1}, \"2\": {\"H\": 1}, \"3\": {\"H\": 1}, \"4\": {\"H\": 1}, \"5\": {\"H\": 1}, \"6\": {\"H\": 1}, \"7\": {\"H\": 1}, \"8\": {\"H\": 1}, \"9\": {\"H\": 1}, \"10\": {\"H\": 1}, \"11\": {\"H\": 1}, \"12\": {\"H\": 1}, \"13\": {\"H\": 1}, \"14\": {\"H\": 1}, \"15\": {\"H\": 1}, \"16\": {\"H\": 1}, \"17\": {\"H\": 1}, \"18\": {\"H\": 1}, \"19\": {\"H\": 1}, \"20\": {\"H\": 1}, \"21\": {\"H\": 1}, \"22\": {\"H\": 1}, \"23\": {\"H\": 1}, \"24\": {\"H\": 1}, \"25\": {\"H\": 1}, \"26\": {\"H\": 1}, \"27\": {\"H\": 1}, \"28\": {\"H\": 1}, \"29\": {\"H\": 1}, \"30\": {\"H\": 1}, \"31\": {\"H\": 1}, \"32\": {\"C\": 1}, \"33\": {\"C\": 1}, \"34\": {\"C\": 1}, \"35\": {\"C\": 1}, \"36\": {\"C\": 1}, \"37\": {\"C\": 1}, \"38\": {\"C\": 1}, \"39\": {\"C\": 1}, \"40\": {\"C\": 1}, \"41\": {\"C\": 1}, \"42\": {\"C\": 1}, \"43\": {\"C\": 1}, \"44\": {\"C\": 1}, \"45\": {\"C\": 1}, \"46\": {\"C\": 1}, \"47\": {\"C\": 1}, \"48\": {\"O\": 1}, \"49\": {\"O\": 1}, \"50\": {\"O\": 1}, \"51\": {\"O\": 1}, \"52\": {\"O\": 1}, \"53\": {\"O\": 1}, \"54\": {\"O\": 1}, \"55\": {\"O\": 1}}" energy=-313.6218566894531 free_energy=-313.6218566894531 stress="-0.006905423477292061 -0.0013853309210389853 -0.00450467923656106 -0.0013853309210389853 0.009439107961952686 0.005599991884082556 -0.00450467923656106 0.005599991884082556 0.013407118618488312" pbc="T T T"
H        0.49738841       1.84331559       1.77824700        0      -0.10613440      -0.09781566       0.11564463      -0.18202443       0.31332362       0.59539676
H        0.10556139      -0.11663722       8.27653495        1       0.04015889      -0.13169602       0.14437728      -0.36897638      -0.78898293       0.22590889
H        6.62289093      -0.91207503       5.20265641        2      -0.16864539       0.10450180      -0.19164155       0.98595297      -0.03108779       0.77323222
H        3.36922884       0.56254893       5.08036070        3       0.12068395      -0.12390949       0.11664019      -0.39409348      -0.59535348      -0.23537099
H        5.95301323       0.59228777       3.38812080        4       0.14110890      -0.33747312      -0.07871757      -0.93093127      -0.50392121       0.87668717
H        5.01743990       0.42520615       7.32442047        5      -0.23162764       0.06489342      -0.14197815      -0.38864830      -1.26104808      -0.47847515
H       -1.57731825       0.54128673      10.53958365        6      -0.12407236      -0.08816644      -0.07763741      -0.37741914      -0.46802109       0.30722439
H        2.69863466       2.00433369       0.26116712        7      -0.05404074       0.01557091      -0.10225952      -0.72495604      -0.67533547      -0.86531252
H       -1.22304027       1.63674000       1.75940496        8      -0.05424770       0.24253051      -0.13897810      -0.49740475      -0.09367643       0.10530809
H       -8.93359109       2.96971000       8.47514764        9      -0.06042116      -0.12559532      -0.10762000       0.36622673      -0.63053483       0.55259037
H       -2.26849165       4.25936991       6.83350189       10       0.20578865       0.12214652       0.33238140      -0.06950042      -0.47619817      -0.34378833
H       -6.68836090       4.95609539       3.39407438       11      -0.06212334       0.10325950      -0.15892705       0.13253976      -0.56485605       0.15245590
H       -3.12925506       0.32645901       3.01954337       12       0.09286848       0.17897757      -0.00989586       0.31409121       0.11225659       0.01380462
H       -6.80751069       1.79512303       7.74588643       13       0.11313654      -0.05419597      -0.04504099      -2.35592365       0.59493971      -0.52510047
H       -1.67751184       0.97559876       8.80862471       14       0.00516112      -0.30016345      -0.16851455      -0.66054368       0.17537323       0.81925774
H       -7.85157885       2.25969165       2.02092882       15       0.06193663       0.16966574       0.04109062       0.45021579       0.30493060      -0.97372174
H       -1.03679285       0.54726059       4.10971776       16       0.09384560       0.18126131      -0.07858792       0.29054555       0.47456378       0.73892760
H        1.41496418       2.60741865       5.94194820       17       0.17914716       0.16208002      -0.08142870       0.04019634      -0.18982783       0.67822617
H       -0.64058368       2.00872471       6.06364850       18      -0.05634327       0.12337296       0.04032443      -0.53551263       0.51595438      -0.09275606
H        0.85977719      -0.92446383       4.06230116       19       0.08226672       0.01615377       0.13954094      -0.43778145      -0.05475802       0.42651847
H        7.07832347       1.52716359       0.77918378       20       0.03746064       0.06299026      -0.11847596      -0.51151693      -0.36469936      -0.19009674
H       -5.65481867       2.28567711       9.73114961       21       0.07723601       0.36926132      -0.07796434       0.09997344      -0.39057064       0.05156467
H        6.08095702      -2.02800065       9.57309365       22       0.04996131       0.13992234      -0.04251475       0.10452017      -0.44056603      -0.00563050
H       -5.39307772       3.26285536       1.28813567       23      -0.08191911      -0.05415634       0.26987036      -0.86359936      -0.75486016      -0.77635449
H       -0.07299375       0.27971738       1.81917046       24       0.13898016       0.34269388       0.14181147      -0.42564005      -0.34438214       0.62044483
H       -1.06700028      -1.51563957       8.21163895       25      -0.20145815       0.01373072       0.07616482      -0.17210963      -0.24385315       0.51164812
H       -2.96209882       2.60530276       6.43440311       26       0.06315788      -0.07174972      -0.16381571       0.16209608       0.09857953       0.31126711
H       -6.35720028       3.51669275       4.57538945       27       0.16449773       0.18567735       0.02440268      -0.60311121       1.40275121      -0.34498772
H       -3.82677233       2.00991085       3.18430482       28       0.08980680      -0.11710630      -0.00472092       0.23108886       0.02062337      -0.20067772
H       -5.17636467       2.03285206       7.19923445       29       0.10905334      -0.18779719       0.15105984      -0.36807674      -0.23564374       0.74253684
H       -0.79357754       4.53174524      -0.43569568       30      -0.12627888      -0.10201430      -0.01900594      -0.09977020       0.06218485       0.11299518
H        2.31575736       1.30675565      11.36317801       31       0.12164100       0.07458555      -0.08519210       0.08103163      -0.48910013      -0.09376840
C       -0.37163625       1.38708494       3.80590655       32       0.82677683       0.29513629       0.09766157       0.43048996      -0.84296679      -2.02712297
C        0.11847909      -1.18778286       6.49983781       33      -0.62840404      -0.18736817      -0.14627944      -0.37042007       0.27214414      -0.96542042
C       -0.97555891       2.96185318       5.57576508       34      -0.36449156      -1.07571718       0.20948713       0.37155092       0.17796488       0.59155989
C        1.35011568      -0.15700496       4.68315325       35      -0.02227716       0.95830950       0.13073063       0.73835021       1.50495362       0.40339810
C        6.36784106       0.86650857       1.33870136       36       0.30590189       0.88519239       1.28776917       1.97926664      -0.30296552       0.89317262
C       -5.53677829       1.29363388       9.24627700       37       0.27688682      -0.37683863       0.66637057      -0.66257799      -0.77057815       0.58604550
C       -3.39932676       1.69730072      10.02118756       38      -0.84111680      -0.44257045       0.59810021       0.37920517       0.55000401       0.65976030
C        4.71880463       2.50518186       0.70336299       39       0.38984913       0.88224187      -0.51305460      -0.59661412       1.44277084       0.49371162
C       -0.32683932       1.26219664       2.24609219       40      -0.63948565       0.50546058       0.23424317       0.77351010       0.79703772      -0.39456493
C       -0.05210450      -1.19852062       8.01058158       41       0.11582497      -0.65736774      -0.92747861       0.85169268       1.37446630      -1.02301598
C       -2.37909936       3.46525765       6.06278716       42      -0.05353465       0.08466818      -0.15002898      -0.40585348      -0.60531759      -1.67188263
C        2.83806335      -0.17358534       4.41939522       43       0.55229828       0.76816439      -0.43150086       1.06823134      -0.67908585       0.54367697
C        6.77902048       0.98017855       2.84378919       44      -1.12306828      -0.45028906       0.26639706      -0.51440984       0.02888409      -1.28144670
C       -5.86817692       1.36776516       7.79427937       45      -0.98979923      -0.05587685      -0.83441747       2.87884617       1.13957751      -0.55467355
C       -1.97699407       1.28319951       9.85895623       46       0.40696898      -0.18668522       0.33790592       1.72741640       0.51335132      -1.56751871
C        3.19008764       2.61285391       0.97606095       47       0.25747462       0.90120993      -0.18333093       1.07158446       1.22870970       1.82997417
O       -0.85758726       2.66103192       4.11713038       48       0.61684448      -0.37118594       1.25663899      -0.17584991       0.40347311       1.06925011
O        1.08909390      -0.23997556       6.12862839       49      -0.39618437      -0.37804493      -0.11483554       0.12259867      -0.37597552      -0.82796800
O       -1.16050469      -0.72093723       5.97406333       50      -0.34983882      -1.05740210      -0.27246660      -0.47366923      -0.41497955      -0.96765494
O        1.00795477       1.19208938       4.24044440       51      -0.03056974       0.15482592      -1.24559263      -1.03328061      -0.52625322       0.63128829
O       -3.10184429       4.20162625       0.97719069       52      -0.29226525       0.28802409      -0.94690535      -0.31202173       1.32850409      -0.04797868
O        4.30825708       0.33413965       9.75623673       53       0.02704314      -1.15722793      -0.33727123      -0.25940096       0.04012802       0.50476134
O       -4.24389643       0.74756648       9.49746228       54       0.41595542      -0.82784213       0.02625960       0.13963933       0.06729791      -0.42571396
O        5.02961365       1.21054932       1.07684153       55       0.87862592       0.61974687       1.29120681      -0.01922221      -0.82934868       0.05840785
