56
Lattice="10.7619164 0.0 0.0 -9.665296305262016 4.732958053065482 0.0 -0.5483100463354086 -2.3664790220718444 10.484177494289693" Properties=species:S:1:pos:R:3:spacegroup_kinds:I:1:momenta:R:3:forces:R:3 spacegroup="P 1" unit_cell=conventional occupancy="_JSON {\"0\": {\"H\": 1}, \"1\": {\"H\": 1}, \"2\": {\"H\": 1}, \"3\": {\"H\": 1}, \"4\": {\"H\": 1}, \"5\": {\"H\": 1}, \"6\": {\"H\": 1}, \"7\": {\"H\": 1}, \"8\": {\"H\": 1}, \"9\": {\"H\": 1}, \"10\": {\"H\": 1}, \"11\": {\"H\": 1}, \"12\": {\"H\": 1}, \"13\": {\"H\": 1}, \"14\": {\"H\": 1}, \"15\": {\"H\": 1}, \"16\": {\"H\": 1}, \"17\": {\"H\": 1}, \"18\": {\"H\": 1}, \"19\": {\"H\": 1}, \"20\": {\"H\": 1}, \"21\": {\"H\": 1}, \"22\": {\"H\": 1}, \"23\": {\"H\": 1}, \"24\": {\"H\": 1}, \"25\": {\"H\": 1}, \"26\": {\"H\": 1}, \"27\": {\"H\": 1}, \"28\": {\"H\": 1}, \"29\": {\"H\": 1}, \"30\": {\"H\": 1}, \"31\": {\"H\": 1}, \"32\": {\"C\": 1}, \"33\": {\"C\": 1}, \"34\": {\"C\": 1}, \"35\": {\"C\": 1}, \"36\": {\"C\": 1}, \"37\": {\"C\": 1}, \"38\": {\"C\": 1}, \"39\": {\"C\": 1}, \"40\": {\"C\": 1}, \"41\": {\"C\": 1}, \"42\": {\"C\": 1}, \"43\": {\"C\": 1}, \"44\": {\"C\": 1}, \"45\": {\"C\": 1}, \"46\": {\"C\": 1}, \"47\": {\"C\": 1}, \"48\": {\"O\": 1}, \"49\": {\"O\": 1}, \"50\": {\"O\": 1}, \"51\": {\"O\": 1}, \"52\": {\"O\": 1}, \"53\": {\"O\": 1}, \"54\": {\"O\": 1}, \"55\": {\"O\": 1}}" energy=-315.20623779296875 free_energy=-315.20623779296875 stress="0.0015259997453540564 -0.0007349554798565805 -5.913375389354769e-07 -0.0007349554798565805 -0.0014768022811040282 5.84863890651377e-08 -5.913375389354769e-07 5.84863890651377e-08 0.0016979648498818278" pbc="T T T"
H       -0.01248427       2.27696696       1.83153339        0       0.26354636       0.05758816       0.17128558       0.07122754       0.02707743       0.05251649
H        0.46428407      -0.32702137       8.65264411        1       0.35723632       0.30052336      -0.15421514      -0.05205535       0.05564365      -0.05251569
H        7.11696904      -0.62167877       5.76820574        2       0.13651140      -0.03657588      -0.02448058       0.06071822       0.02959765      -0.06332508
H        3.54843712       0.20514534       4.71597175        3       0.04495575       0.01373704       0.24194406      -0.04159919       0.05318689       0.06330328
H        5.94175252       0.08951207       3.41055536        4       0.10004105       0.00919574       0.06893732      -0.07122693      -0.02707695      -0.05251792
H        4.91667413       0.32702137       7.07362213        5       0.03762731       0.23702154      -0.03633186       0.05205728      -0.05563826       0.05251877
H       -1.73601084       0.62167878       9.95806050        6       0.04090260      -0.15000140      -0.41043770      -0.06071926      -0.02958677       0.06332518
H        2.38083113       2.16133369       0.52611700        7       0.07639930       0.13373956      -0.11953039       0.04159791      -0.05318586      -0.06330189
H       -1.38564785       1.18011340       2.11584331        8       0.34764813      -0.24942510       0.01968671       0.00912190       0.09641404       0.00989577
H       -8.45014457       2.81694541       8.36833418        9      -0.04487542       0.24826795       0.27191556       0.03391327       0.09078147      -0.00994024
H       -2.58250803       2.70418269       6.85836100       10       0.00836639       0.05472545      -0.13232917       0.03144380       0.09145378       0.01228166
H       -6.70499477       3.65935988       3.62581649       11      -0.35280026      -0.06406840       0.05024236       0.01202245       0.09588346      -0.01239146
H       -3.44700030       1.18636563       3.12624543       12       0.17759995       0.19181929      -0.04741865      -0.00912239      -0.09641385      -0.00989514
H       -6.59610993       1.91601265       7.35793206       13      -0.06659844      -0.18039638      -0.21144164      -0.03391630      -0.09078112       0.00994127
H       -1.70183007       2.02877537       8.86790524       14      -0.29590695       0.31510437      -0.07166042      -0.03144051      -0.09144841      -0.01229294
H       -7.79294969       3.44007720       1.61627226       15      -0.10166361      -0.21365327       0.15571300      -0.01202488      -0.09588438       0.01239008
H       -0.77544238       0.72057867       4.36236141       16      -0.29135246      -0.04383699      -0.13778795      -0.05580275      -0.06497576       0.06553192
H        1.56164860       2.67260202       6.12181608       17       0.04513471      -0.09416448      -0.19034861       0.02151167      -0.08285699      -0.06550516
H       -0.46393564       1.89516633       6.16016720       18      -0.02388752       0.06229365       0.02104621       0.04679127      -0.08891314       0.03981790
H        0.70181139      -0.86845994       4.32401029       19       0.02574107      -0.11427781      -0.05287528      -0.08095883      -0.05914032      -0.03975107
H        6.70471062       1.64590036       0.87972733       20      -0.14286290      -0.07079985      -0.14118650       0.05580501       0.06498084      -0.06553408
H       -5.84598670       2.06035604       9.60445016       21      -0.29753233       0.02254640      -0.04431235      -0.02151404       0.08285333       0.06550351
H        5.84489385      -1.89516633       9.56609904       22      -0.28312851       0.06560536      -0.15494221      -0.04679281       0.08891565      -0.03981570
H       -5.53445954       3.23493897       0.91807845       23      -0.02208037       0.11416853       0.04301970       0.08095722       0.05914067       0.03974707
H        0.25131050       0.51347389       1.94957474       24       0.15959789      -0.21361364       0.07505588      -0.00851072      -0.01871613      -0.03717779
H       -0.54820374      -1.79480395       8.53460275       25      -0.12868866      -0.15316038      -0.08588331      -0.00032992      -0.02044776       0.03709357
H       -2.80766320       2.46899490       5.11315433       26      -0.07305533       0.00146869      -0.17781296      -0.04083801      -0.01125192       0.00405109
H       -6.60619587       3.34910738       5.37102316       27       0.12888264       0.07074453      -0.23064715       0.03167360      -0.02802492      -0.00411347
H       -5.08395866       1.85300514       3.29251401       28       0.22099581       0.30740365       0.21601993       0.00851507       0.01871240       0.03717766
H       -4.83275446       1.79480396       7.19166349       29      -0.04673026      -0.18471461       0.19482948       0.00034668       0.02045730      -0.03709835
H       -0.92836486       4.63044218       0.12893441       30      -0.09883902       0.19431951       0.04569436       0.04083347       0.01124360      -0.00406421
H        2.32185777       1.38385068      10.35524308       31       0.15211596       0.04921952       0.12080102      -0.03167592       0.02802746       0.00411131
C       -0.12835063       1.44534837       3.84841655       32      -0.28778073       0.91754073       0.18270710      -0.01445473       0.09213263      -0.08206758
C        0.20260826      -1.12485611       6.63576095       33       0.00096406       0.97078231      -0.67128192       0.05361561       0.07627331       0.08205867
C       -0.77226604       2.84130358       5.69336968       34      -0.96473690       0.45234422      -0.54337998      -0.06051356       0.10292938       0.03487874
C        1.39483372      -0.15433229       4.79080781       35       0.83737779      -0.34833687      -0.35976593       0.09947434       0.06571159      -0.03489171
C        6.05761888       0.92113066       1.39367220       36       0.73780001       0.71679960       1.01054651       0.01444757      -0.09213789       0.08206916
C       -5.58356646       1.12485611       9.09050530       37       0.36600935      -0.57579551       1.35161317      -0.05360225      -0.07626382      -0.08205989
C       -3.51207206       1.89165448      10.03289656       38      -0.27702103       0.36712178       0.74445208       0.06052643      -0.10293462      -0.03488877
C        4.53443453       2.52081132       0.45128094       39      -0.47025582       0.22782501       0.51146167      -0.09947199      -0.06572023       0.03490255
C       -0.32593927       1.35886302       2.34265801       40      -0.11966996      -0.73251108       0.28611321      -0.02487622      -0.04884121       0.03836745
C        0.34202778      -1.28942579       8.14151949       41       0.57030904      -0.50578053       0.01064034       0.00090483      -0.05509198      -0.03821052
C       -2.26824862       3.05565688       5.86632716       42      -0.48098077       0.96238649       0.55365818       0.02524476      -0.06073743       0.01393167
C        2.83264719      -0.61974062       4.61785033       43      -0.04860277      -0.55844948       0.33742963      -0.04931974      -0.04330927      -0.01374505
C        6.25520752       1.00761601       2.89943074       44      -0.70747446      -0.11378709      -0.42767829       0.02487171       0.04884352      -0.03836684
C       -5.72298598       1.28942580       7.58474676       45       0.19434055       0.24831833       0.14297097      -0.00092400       0.05507585       0.03821232
C       -2.01608948       1.67730118       9.85993908       46       0.09740524      -0.72425149      -0.69205550      -0.02525455       0.06073149      -0.01389994
C        3.09662106       2.98621965       0.62423841       47      -0.12331172      -0.02208015       0.38636924       0.04932666       0.04330599       0.01374347
O       -0.42625656       2.75924355       4.28180099       48       1.20625674       0.48604619      -0.44497158       0.00567051      -0.06416652       0.01081676
O        1.04798334      -0.07585512       6.20237650       49       0.42305791      -1.01659881      -0.20166176      -0.03317402      -0.05508667      -0.01086417
O       -1.17294689      -0.80803189       6.28015861       50      -0.36133290       0.99731317      -0.30860065      -0.00324769      -0.06212837      -0.01994139
O        1.24638404       1.12493657       4.20401888       51      -0.92624698      -0.21254257      -0.34164539      -0.02462102      -0.05716482       0.01989327
O       -3.30977150       4.34019353       0.96028775       52       0.26500009      -0.83301049      -0.49473951      -0.00567089       0.06416683      -0.01082099
O        4.33297486       0.07585512       9.52388974       53      -0.48283211      -0.49689578       1.25894465       0.03316910       0.05508576       0.01086690
O       -4.20801131       0.80803190       9.44610763       54       0.43498781      -0.06064940      -0.51538975       0.00324709       0.06213084       0.01994688
O        4.68288421       1.24154246       1.03806987       55       0.06343698      -0.82659266      -1.04828579       0.02462396       0.05716886      -0.01989687
56
Lattice="10.7619164 0.0 0.0 -9.665296305262016 4.732958053065482 0.0 -0.5483100463354086 -2.3664790220718444 10.484177494289693" Properties=species:S:1:pos:R:3:spacegroup_kinds:I:1:momenta:R:3:forces:R:3 spacegroup="P 1" unit_cell=conventional occupancy="_JSON {\"0\": {\"H\": 1}, \"1\": {\"H\": 1}, \"2\": {\"H\": 1}, \"3\": {\"H\": 1}, \"4\": {\"H\": 1}, \"5\": {\"H\": 1}, \"6\": {\"H\": 1}, \"7\": {\"H\": 1}, \"8\": {\"H\": 1}, \"9\": {\"H\": 1}, \"10\": {\"H\": 1}, \"11\": {\"H\": 1}, \"12\": {\"H\": 1}, \"13\": {\"H\": 1}, \"14\": {\"H\": 1}, \"15\": {\"H\": 1}, \"16\": {\"H\": 1}, \"17\": {\"H\": 1}, \"18\": {\"H\": 1}, \"19\": {\"H\": 1}, \"20\": {\"H\": 1}, \"21\": {\"H\": 1}, \"22\": {\"H\": 1}, \"23\": {\"H\": 1}, \"24\": {\"H\": 1}, \"25\": {\"H\": 1}, \"26\": {\"H\": 1}, \"27\": {\"H\": 1}, \"28\": {\"H\": 1}, \"29\": {\"H\": 1}, \"30\": {\"H\": 1}, \"31\": {\"H\": 1}, \"32\": {\"C\": 1}, \"33\": {\"C\": 1}, \"34\": {\"C\": 1}, \"35\": {\"C\": 1}, \"36\": {\"C\": 1}, \"37\": {\"C\": 1}, \"38\": {\"C\": 1}, \"39\": {\"C\": 1}, \"40\": {\"C\": 1}, \"41\": {\"C\": 1}, \"42\": {\"C\": 1}, \"43\": {\"C\": 1}, \"44\": {\"C\": 1}, \"45\": {\"C\": 1}, \"46\": {\"C\": 1}, \"47\": {\"C\": 1}, \"48\": {\"O\": 1}, \"49\": {\"O\": 1}, \"50\": {\"O\": 1}, \"51\": {\"O\": 1}, \"52\": {\"O\": 1}, \"53\": {\"O\": 1}, \"54\": {\"O\": 1}, \"55\": {\"O\": 1}}" energy=-314.163330078125 free_energy=-314.163330078125 stress="0.0017965375445783138 -0.006295043043792248 0.004064926411956549 -0.006295043043792248 0.0028975580353289843 0.006800152827054262 0.004064926411956549 0.006800152827054262 -0.004473628010600805" pbc="T T T"
H        0.12223868       2.21335581       1.84744820        0      -0.06388212      -0.04107991      -0.23331088      -0.34890753      -0.46718019       0.26391801
H        0.31702073      -0.21474883       8.50409130        1      -0.41596667       0.28241807       0.13417993       0.19316733      -0.82259107      -0.04442104
H        7.16689579      -0.52337016       5.79422136        2      -0.01099349       0.09115187       0.18553093      -0.25331482       0.53084248      -0.08150322
H        3.56769346       0.19128020       4.81695802        3       0.00635052       0.03106407      -0.05661325      -0.45246923      -0.59983361       0.03513604
H        5.89857392       0.12906185       3.45590350        4      -0.13662972       0.06346629       0.07412529      -0.11012601      -0.04154242      -0.10463598
H        5.01440548       0.32414384       7.14335940        5       0.11996952      -0.01313388       0.16304607      -0.17231135      -0.44180560      -0.12289582
H       -1.69404184       0.62953428       9.70230151        6      -0.06773579       0.00953630      -0.07983934      -0.29939801      -0.31745732       0.05525977
H        2.37945912       2.25462949       0.31381001        7      -0.10899673       0.12801591      -0.23887806      -0.36571082      -0.41984683      -0.02494847
H       -1.28062218       1.09681359       2.00394187        8       0.10394083       0.17626285      -0.14567624      -0.56132501      -0.12197539      -0.18949689
H       -8.36548932       3.00985772       8.44664937        9       0.01874399       0.07750827      -0.14054388       0.39231932      -0.31946641      -0.01170141
H       -2.54664933       2.78893573       6.82205309       10       0.03048608       0.25775615      -0.04488819      -0.41237319      -0.20837829       1.19028497
H       -6.74143408       3.80633210       3.57290634       11       0.32050249       0.15943877       0.02898758       0.31104103       0.03237013       0.37734765
H       -3.41360537       1.09458054       3.05616296       12       0.34318408      -0.23802467       0.07743270      -0.50854123       0.08234619       0.33155921
H       -6.59466944       1.88031610       7.31880476       13       0.01536743       0.03548267       0.08656148      -0.08189687      -0.12137195       0.20796546
H       -1.92963185       2.16013648       8.81427829       14       0.12531093      -0.02323629      -0.06973050       0.40313640      -0.12264682      -0.32056531
H       -7.86690874       3.29972352       1.71696131       15      -0.08477308      -0.03159829       0.12293903      -0.01434055      -0.41004381      -0.77136469
H       -0.90235503       0.77646740       4.33988649       16      -0.08686016      -0.05814816       0.28342577       0.40912989       0.11715188       0.19911888
H        1.57326846       2.69585857       6.02312945       17       0.00715143      -0.12380899      -0.16254835      -0.29899099      -0.23122823       0.25480610
H       -0.61632289       1.91476308       6.12879312       18      -0.08876032       0.01924318      -0.05101228       0.36619547      -0.32495576       0.18464845
H        0.76835890      -0.91704685       4.28843428       19      -0.15605139       0.01894761       0.06988650      -0.03238294       0.22899705       0.08527143
H        6.70609327       1.62092018       0.91686460       20       0.01929248      -0.19191448       0.26163558       0.76997274       0.63578117      -0.47934842
H       -5.82009075       2.01052710       9.75507010       21       0.30326577       0.03656581       0.14022300      -0.00922743      -0.03740998      -0.50983793
H        5.81093419      -1.87039276       9.61285225       22       0.20657588       0.20659801      -0.02039144       0.37427855      -0.52968532       0.33497751
H       -5.59543447       3.24736135       1.04015516       23      -0.04224137      -0.11354995       0.21265892       0.13948479      -0.29077256      -0.10894263
H        0.42784600       0.48710591       2.10176737       24       0.30049787      -0.13611009      -0.00468404      -0.59484440       0.09816330      -0.19185095
H       -0.53518873      -1.77813119       8.52127418       25       0.00655554       0.08690834       0.10595497       0.65831876      -0.06782493      -0.13440615
H       -2.96285659       2.59157645       5.13270583       26      -0.25300651       0.03340923       0.06572331       0.52107191       0.35914677       0.31286702
H       -6.55716732       3.24215841       5.23786851       27      -0.16752509      -0.02805350      -0.10766313       0.03742116      -0.88643491       0.79596186
H       -5.03685284       1.93128229       3.36334310       28      -0.15021119       0.12582496      -0.10191907       0.62859094      -0.83863431      -0.54655373
H       -4.85344610       1.77016482       7.27072609       29      -0.06649184       0.16884079       0.01181295       1.25072992       0.88673413      -0.39224637
H       -0.86175593       4.56432676       0.03964644       30       0.17846389      -0.19144313      -0.07943207      -0.39176157      -0.36752403      -0.55813497
H        2.38301369       1.54051130      10.51636413       31      -0.19060841       0.01911248       0.25222980       0.14691055      -0.16933173       0.11265884
C       -0.17581895       1.46226534       3.84974165       32      -0.18515619      -0.57459527      -0.22058229       0.27882865      -0.44003931       0.08530903
C        0.22192600      -1.12504879       6.58997346       33      -0.07512310      -0.46550067       0.08488207      -0.55275697      -0.80494547       0.23250598
C       -0.84336859       2.87265024       5.66245298       34       0.04319840       0.29158534      -0.23378158       1.13017988       0.50398970      -0.24388550
C        1.43229075      -0.18392812       4.79404744       35      -0.39846589      -0.16641817      -0.07506735      -1.39262605       0.15177777      -0.49470329
C        6.06713488       0.93900035       1.43224267       36      -0.39497128      -0.32073272      -0.80955164      -1.35843670      -1.50483477      -0.67591524
C       -5.58329451       1.10380716       9.15771830       37      -0.36193214      -0.01752082       0.07000836      -0.01275387       0.62094873      -0.17375553
C       -3.52181741       1.89477510      10.09402552       38       0.16177527      -0.52863204       0.28467020       0.13258728       0.16548997      -2.07574964
C        4.51640583       2.52102929       0.51005713       39       0.36138346      -0.43527609       0.58505063       0.14679131       0.12096152       0.07939816
C       -0.28405293       1.30051714       2.35611376       40       0.19195155      -0.55821588       0.03644879       1.44869924       0.72397614      -0.52214098
C        0.37449211      -1.27541847       8.11748207       41       0.14753512       0.49373575      -0.46888077      -1.73078036       1.54831302      -0.36516732
C       -2.30636824       3.14844781       5.85186586       42      -0.25949177       1.26103865      -0.54787179      -0.30482838      -0.37169498      -1.63763249
C        2.84200269      -0.65064888       4.64737901       43       0.56034522      -0.10141580      -0.32885543       0.85266042       1.99939609      -1.91113877
C        6.24443653       1.02088160       2.92126915       44       0.40080522      -0.06552259       0.31202148       0.30223861       0.54350078       0.34550515
C       -5.72072981       1.29321541       7.63361805       45      -0.11247080      -0.13664546       1.05760859      -1.14459789      -0.53769720       0.96596187
C       -2.05012740       1.65516313       9.77267024       46      -0.47453594       0.69520753      -0.54057382       0.62453341       1.48065150       1.00712752
C        3.08351632       3.00246314       0.64822751       47      -0.01605111       0.11556192       0.01380976       0.20967576       0.51371175       0.80870718
O       -0.35411232       2.78763683       4.26978768       48       0.22350734       0.25056264       0.25663338      -1.10039806       0.01685491       0.20638122
O        1.06167983      -0.11984226       6.16496940       49      -0.16821887      -0.55392497      -0.45958730       0.11151970       0.85498226       0.49101409
O       -1.21357942      -0.78977938       6.25156088       50      -0.33543372      -0.44277477      -0.25066846       0.73390520      -0.39541665       0.41342181
O        1.20697420       1.13024275       4.19342496       51       0.17004605       0.12777096       0.14454278       0.59316075      -1.04898632       0.70126760
O       -3.31489246       4.29053999       0.93958222       52      -0.41183543      -0.17658542       0.40053828      -0.10514074       0.93135405       2.17608690
O        4.33821577       0.06296653       9.62059752       53       0.35992277       0.45633098       0.21462761       0.43338180       0.52332211      -1.13898301
O       -4.17202258       0.83010248       9.41381798       54       0.02043463       0.24051370      -0.02777871      -0.78840959      -0.43915951       0.27765128
O        4.70668947       1.20000077       0.96656716       55       0.53785608      -0.22599720      -0.23686588      -0.20127955       0.02995174       1.29980624
56
Lattice="10.7619164 0.0 0.0 -9.665296305262016 4.732958053065482 0.0 -0.5483100463354086 -2.3664790220718444 10.484177494289693" Properties=species:S:1:pos:R:3:spacegroup_kinds:I:1:momenta:R:3:forces:R:3 spacegroup="P 1" unit_cell=conventional occupancy="_JSON {\"0\": {\"H\": 1}, \"1\": {\"H\": 1}, \"2\": {\"H\": 1}, \"3\": {\"H\": 1}, \"4\": {\"H\": 1}, \"5\": {\"H\": 1}, \"6\": {\"H\": 1}, \"7\": {\"H\": 1}, \"8\": {\"H\": 1}, \"9\": {\"H\": 1}, \"10\": {\"H\": 1}, \"11\": {\"H\": 1}, \"12\": {\"H\": 1}, \"13\": {\"H\": 1}, \"14\": {\"H\": 1}, \"15\": {\"H\": 1}, \"16\": {\"H\": 1}, \"17\": {\"H\": 1}, \"18\": {\"H\": 1}, \"19\": {\"H\": 1}, \"20\": {\"H\": 1}, \"21\": {\"H\": 1}, \"22\": {\"H\": 1}, \"23\": {\"H\": 1}, \"24\": {\"H\": 1}, \"25\": {\"H\": 1}, \"26\": {\"H\": 1}, \"27\": {\"H\": 1}, \"28\": {\"H\": 1}, \"29\": {\"H\": 1}, \"30\": {\"H\": 1}, \"31\": {\"H\": 1}, \"32\": {\"C\": 1}, \"33\": {\"C\": 1}, \"34\": {\"C\": 1}, \"35\": {\"C\": 1}, \"36\": {\"C\": 1}, \"37\": {\"C\": 1}, \"38\": {\"C\": 1}, \"39\": {\"C\": 1}, \"40\": {\"C\": 1}, \"41\": {\"C\": 1}, \"42\": {\"C\": 1}, \"43\": {\"C\": 1}, \"44\": {\"C\": 1}, \"45\": {\"C\": 1}, \"46\": {\"C\": 1}, \"47\": {\"C\": 1}, \"48\": {\"O\": 1}, \"49\": {\"O\": 1}, \"50\": {\"O\": 1}, \"51\": {\"O\": 1}, \"52\": {\"O\": 1}, \"53\": {\"O\": 1}, \"54\": {\"O\": 1}, \"55\": {\"O\": 1}}" energy=-313.85382080078125 free_energy=-313.85382080078125 stress="0.013761415146291256 -0.004879399668425322 -0.005674333777278662 -0.004879399668425322 0.006163814105093479 0.005476055666804314 -0.005674333777278662 0.005476055666804314 -0.0018128922674804926" pbc="T T T"
H        0.15152044       2.21865832       1.86996605        0       0.18670851      -0.17536387       0.06887258      -0.25463057      -0.83075476       0.05804953
H        0.10920506      -0.19334255       8.62244504        1      -0.00897914       0.26460770      -0.03107019       0.20135999      -1.45994329      -1.01799452
H        7.15516438      -0.39883638       5.76710607        2       0.22383263       0.15937042      -0.34067696       0.18644542       0.19728109      -0.26340476
H        3.55287385       0.14212054       5.10648268        3      -0.16824452      -0.25377474       0.22539348      -0.53552693      -0.32389900      -0.69895971
H        5.71904796       0.28007960       3.48878620        4      -0.14175099       0.06957651       0.07981267      -0.42629009      -0.45673123       0.12704514
H        5.07217450       0.33732698       7.23278698        5      -0.02221069       0.07819961       0.03358490       0.14585012      -0.33883476      -0.34743768
H       -1.86337471       0.61454907       9.70908645        6       0.00209969      -0.06951296       0.02682889       0.35397440       0.27212179       0.03442008
H        2.40409173       2.23500136       0.27412512        7      -0.05904500      -0.08227823      -0.03197389       0.20294988       0.43273565      -0.32657504
H       -1.27779549       1.10993536       2.00836782        8      -0.09536211      -0.13044338       0.02708128      -0.83864701       0.04003235      -0.43664846
H       -8.33962576       3.21420930       8.35225625        9       0.17273574       0.29406267      -0.08361801       0.23365381       0.22766255      -0.09218661
H       -2.54133525       3.01261338       6.85842849       10       0.10491074       0.07367815       0.12018081      -0.11240880      -0.33224356       0.81576550
H       -6.39093379       3.84895158       3.60576969       11       0.14443709       0.00657609      -0.00789956      -0.26306581       0.31059319      -0.29988962
H       -3.37778194       0.94136169       3.24468007       12       0.01522147      -0.07500945       0.19342034      -1.33400583      -0.10755578      -0.76893425
H       -6.68609537       1.78694176       7.51153381       13      -0.08667817      -0.27258714      -0.01170144      -0.20095523      -0.13165043      -0.15521589
H       -1.76453235       2.05976713       8.70170582       14       0.02189862      -0.10309604       0.09738856      -0.31269547       0.19350241       0.31044149
H       -7.95446003       3.02340524       1.79564980       15      -0.04973561      -0.11226858       0.02076900       0.41189519       0.38057753      -1.18562174
H       -0.80018669       0.77039117       4.49092963       16       0.00831363      -0.06072618      -0.00660595       0.00097027       0.17438762      -0.99411488
H        1.44500773       2.50713073       6.17382268       17       0.01225021      -0.28997433      -0.01209812       0.24866411       1.14403641       0.13491409
H       -0.56090760       1.92546793       6.04306250       18       0.00912419       0.02953040      -0.02228963      -0.35387132      -0.16755050       0.13082747
H        0.67939902      -0.89355046       4.27079630       19       0.07644890      -0.05095202      -0.04691398       0.30056781      -0.10530317      -0.07735384
H        6.74714456       1.49845928       0.85340919       20      -0.11245938      -0.08927561      -0.22056960       0.51639646       1.18711078      -0.49470150
H       -5.80988208       2.10952460       9.71365898       21      -0.20491585       0.06817231      -0.10894772       0.02467437      -0.34780338      -0.22419620
H        5.87596098      -1.83571090       9.70363712       22      -0.16164975       0.07076758       0.03590461      -0.15178670      -0.88952583      -0.00086350
H       -5.50015885       3.11440207       1.13784151       23       0.11933041       0.03126339      -0.00442196      -0.11865062       0.35620707      -0.32354969
H        0.36855190       0.33657777       1.99417364       24      -0.04607111      -0.23447352      -0.15432090      -1.04204106       1.71019197       0.43702137
H       -0.32413893      -2.00709543       8.53026265       25       0.20339029      -0.17844337      -0.18322129       0.05246508       0.67888826      -0.27905226
H       -3.08714231       2.74677629       5.19721884       26      -0.01915513       0.07455413      -0.09249932       0.58998144       0.03474072       0.12558103
H       -6.69673478       3.25872607       5.21696384       27      -0.09696535      -0.06688909      -0.04755595       0.17544539      -1.07493138       0.50442231
H       -4.83143344       2.04721353       3.16449854       28       0.33766946       0.12941278       0.00705001       0.39477777      -1.34767079      -0.01897252
H       -4.93754032       1.99042834       7.37634382       29       0.05869106       0.23203845       0.01089260      -0.29873103      -0.47476068      -0.05642612
H       -0.81005396       4.51876355       0.00822811       30      -0.20155794       0.23295192      -0.03457235      -0.26691514      -0.02006688      -0.48482379
H        2.48120426       1.62674260      10.66760490       31       0.30393414      -0.01816131       0.05312285      -0.25146663      -0.60053080       0.38425612
C       -0.17497677       1.41202888       3.81608586       32       0.11041233      -0.26316030      -0.10980181       0.95672870       0.41550314       1.33581305
C        0.16861400      -1.18805865       6.60335742       33      -0.76776887       0.02200039       0.67404011      -0.22194333       0.09040938      -0.69299781
C       -0.81165545       2.89924227       5.59186426       34      -0.05282380       0.32733019      -0.63230752      -1.19237626      -0.34071434       0.60170174
C        1.38527139      -0.18167028       4.74198784       35       0.10269962       0.21879260      -0.68694657       0.81695533      -0.55122638      -0.59415102
C        6.06620573       0.86818197       1.37965232       36       0.53230865      -0.54626132       0.08532683      -0.00821079      -0.53996122       1.85032988
C       -5.59710014       1.15461055       9.17270551       37       0.05871107       1.06856361       0.55336536       0.70454502       0.84736717       1.79725409
C       -3.48648164       1.86752582      10.06803997       38       0.30032555       0.37939339      -0.58623089      -0.95998198       1.52577507      -0.53066039