56
Lattice="10.7619164 0.0 0.0 -9.665296305262016 4.732958053065482 0.0 -0.5483100463354086 -2.3664790220718444 10.484177494289693" Properties=species:S:1:pos:R:3:spacegroup_kinds:I:1:forces:R:3 spacegroup="P 1" unit_cell=conventional occupancy="_JSON {\"0\": {\"H\": 1}, \"1\": {\"H\": 1}, \"2\": {\"H\": 1}, \"3\": {\"H\": 1}, \"4\": {\"H\": 1}, \"5\": {\"H\": 1}, \"6\": {\"H\": 1}, \"7\": {\"H\": 1}, \"8\": {\"H\": 1}, \"9\": {\"H\": 1}, \"10\": {\"H\": 1}, \"11\": {\"H\": 1}, \"12\": {\"H\": 1}, \"13\": {\"H\": 1}, \"14\": {\"H\": 1}, \"15\": {\"H\": 1}, \"16\": {\"H\": 1}, \"17\": {\"H\": 1}, \"18\": {\"H\": 1}, \"19\": {\"H\": 1}, \"20\": {\"H\": 1}, \"21\": {\"H\": 1}, \"22\": {\"H\": 1}, \"23\": {\"H\": 1}, \"24\": {\"H\": 1}, \"25\": {\"H\": 1}, \"26\": {\"H\": 1}, \"27\": {\"H\": 1}, \"28\": {\"H\": 1}, \"29\": {\"H\": 1}, \"30\": {\"H\": 1}, \"31\": {\"H\": 1}, \"32\": {\"C\": 1}, \"33\": {\"C\": 1}, \"34\": {\"C\": 1}, \"35\": {\"C\": 1}, \"36\": {\"C\": 1}, \"37\": {\"C\": 1}, \"38\": {\"C\": 1}, \"39\": {\"C\": 1}, \"40\": {\"C\": 1}, \"41\": {\"C\": 1}, \"42\": {\"C\": 1}, \"43\": {\"C\": 1}, \"44\": {\"C\": 1}, \"45\": {\"C\": 1}, \"46\": {\"C\": 1}, \"47\": {\"C\": 1}, \"48\": {\"O\": 1}, \"49\": {\"O\": 1}, \"50\": {\"O\": 1}, \"51\": {\"O\": 1}, \"52\": {\"O\": 1}, \"53\": {\"O\": 1}, \"54\": {\"O\": 1}, \"55\": {\"O\": 1}}" energy=-315.20623779296875 free_energy=-315.20623779296875 stress="0.0015259997453540564 -0.0007349554798565805 -5.913375389354769e-07 -0.0007349554798565805 -0.0014768022811040282 5.84863890651377e-08 -5.913375389354769e-07 5.84863890651377e-08 0.0016979648498818278" pbc="T T T"
H       -0.01248427       2.27696696       1.83153339        0       0.07122754       0.02707743       0.05251649
H        0.46428407      -0.32702137       8.65264411        1      -0.05205535       0.05564365      -0.05251569
H        7.11696904      -0.62167877       5.76820574        2       0.06071822       0.02959765      -0.06332508
H        3.54843712       0.20514534       4.71597175        3      -0.04159919       0.05318689       0.06330328
H        5.94175252       0.08951207       3.41055536        4      -0.07122693      -0.02707695      -0.05251792
H        4.91667413       0.32702137       7.07362213        5       0.05205728      -0.05563826       0.05251877
H       -1.73601084       0.62167878       9.95806050        6      -0.06071926      -0.02958677       0.06332518
H        2.38083113       2.16133369       0.52611700        7       0.04159791      -0.05318586      -0.06330189
H       -1.38564785       1.18011340       2.11584331        8       0.00912190       0.09641404       0.00989577
H       -8.45014457       2.81694541       8.36833418        9       0.03391327       0.09078147      -0.00994024
H       -2.58250803       2.70418269       6.85836100       10       0.03144380       0.09145378       0.01228166
H       -6.70499477       3.65935988       3.62581649       11       0.01202245       0.09588346      -0.01239146
H       -3.44700030       1.18636563       3.12624543       12      -0.00912239      -0.09641385      -0.00989514
H       -6.59610993       1.91601265       7.35793206       13      -0.03391630      -0.09078112       0.00994127
H       -1.70183007       2.02877537       8.86790524       14      -0.03144051      -0.09144841      -0.01229294
H       -7.79294969       3.44007720       1.61627226       15      -0.01202488      -0.09588438       0.01239008
H       -0.77544238       0.72057867       4.36236141       16      -0.05580275      -0.06497576       0.06553192
H        1.56164860       2.67260202       6.12181608       17       0.02151167      -0.08285699      -0.06550516
H       -0.46393564       1.89516633       6.16016720       18       0.04679127      -0.08891314       0.03981790
H        0.70181139      -0.86845994       4.32401029       19      -0.08095883      -0.05914032      -0.03975107
H        6.70471062       1.64590036       0.87972733       20       0.05580501       0.06498084      -0.06553408
H       -5.84598670       2.06035604       9.60445016       21      -0.02151404       0.08285333       0.06550351
H        5.84489385      -1.89516633       9.56609904       22      -0.04679281       0.08891565      -0.03981570
H       -5.53445954       3.23493897       0.91807845       23       0.08095722       0.05914067       0.03974707
H        0.25131050       0.51347389       1.94957474       24      -0.00851072      -0.01871613      -0.03717779
H       -0.54820374      -1.79480395       8.53460275       25      -0.00032992      -0.02044776       0.03709357
H       -2.80766320       2.46899490       5.11315433       26      -0.04083801      -0.01125192       0.00405109
H       -6.60619587       3.34910738       5.37102316       27       0.03167360      -0.02802492      -0.00411347
H       -5.08395866       1.85300514       3.29251401       28       0.00851507       0.01871240       0.03717766
H       -4.83275446       1.79480396       7.19166349       29       0.00034668       0.02045730      -0.03709835
H       -0.92836486       4.63044218       0.12893441       30       0.04083347       0.01124360      -0.00406421
H        2.32185777       1.38385068      10.35524308       31      -0.03167592       0.02802746       0.00411131
C       -0.12835063       1.44534837       3.84841655       32      -0.01445473       0.09213263      -0.08206758
C        0.20260826      -1.12485611       6.63576095       33       0.05361561       0.07627331       0.08205867
C       -0.77226604       2.84130358       5.69336968       34      -0.06051356       0.10292938       0.03487874
C        1.39483372      -0.15433229       4.79080781       35       0.09947434       0.06571159      -0.03489171
C        6.05761888       0.92113066       1.39367220       36       0.01444757      -0.09213789       0.08206916
C       -5.58356646       1.12485611       9.09050530       37      -0.05360225      -0.07626382      -0.08205989
C       -3.51207206       1.89165448      10.03289656       38       0.06052643      -0.10293462      -0.03488877
C        4.53443453       2.52081132       0.45128094       39      -0.09947199      -0.06572023       0.03490255
C       -0.32593927       1.35886302       2.34265801       40      -0.02487622      -0.04884121       0.03836745
C        0.34202778      -1.28942579       8.14151949       41       0.00090483      -0.05509198      -0.03821052
C       -2.26824862       3.05565688       5.86632716       42       0.02524476      -0.06073743       0.01393167
C        2.83264719      -0.61974062       4.61785033       43      -0.04931974      -0.04330927      -0.01374505
C        6.25520752       1.00761601       2.89943074       44       0.02487171       0.04884352      -0.03836684
C       -5.72298598       1.28942580       7.58474676       45      -0.00092400       0.05507585       0.03821232
C       -2.01608948       1.67730118       9.85993908       46      -0.02525455       0.06073149      -0.01389994
C        3.09662106       2.98621965       0.62423841       47       0.04932666       0.04330599       0.01374347
O       -0.42625656       2.75924355       4.28180099       48       0.00567051      -0.06416652       0.01081676
O        1.04798334      -0.07585512       6.20237650       49      -0.03317402      -0.05508667      -0.01086417
O       -1.17294689      -0.80803189       6.28015861       50      -0.00324769      -0.06212837      -0.01994139
O        1.24638404       1.12493657       4.20401888       51      -0.02462102      -0.05716482       0.01989327
O       -3.30977150       4.34019353       0.96028775       52      -0.00567089       0.06416683      -0.01082099
O        4.33297486       0.07585512       9.52388974       53       0.03316910       0.05508576       0.01086690
O       -4.20801131       0.80803190       9.44610763       54       0.00324709       0.06213084       0.01994688
O        4.68288421       1.24154246       1.03806987       55       0.02462396       0.05716886      -0.01989687
