32
Lattice="6.17176593 0.0 0.0 0.0 8.01859859 0.0 0.0 0.0 13.03281824" Properties=species:S:1:pos:R:3:spacegroup_kinds:I:1:momenta:R:3:forces:R:3 spacegroup="P 1" unit_cell=conventional occupancy="_JSON {\"0\": {\"Li\": 1}, \"1\": {\"Li\": 1}, \"2\": {\"Li\": 1}, \"3\": {\"Li\": 1}, \"4\": {\"Li\": 1}, \"5\": {\"Li\": 1}, \"6\": {\"Li\": 1}, \"7\": {\"Li\": 1}, \"8\": {\"Li\": 1}, \"9\": {\"Li\": 1}, \"10\": {\"Li\": 1}, \"11\": {\"Li\": 1}, \"12\": {\"P\": 1}, \"13\": {\"P\": 1}, \"14\": {\"P\": 1}, \"15\": {\"P\": 1}, \"16\": {\"S\": 1}, \"17\": {\"S\": 1}, \"18\": {\"S\": 1}, \"19\": {\"S\": 1}, \"20\": {\"S\": 1}, \"21\": {\"S\": 1}, \"22\": {\"S\": 1}, \"23\": {\"S\": 1}, \"24\": {\"S\": 1}, \"25\": {\"S\": 1}, \"26\": {\"S\": 1}, \"27\": {\"S\": 1}, \"28\": {\"S\": 1}, \"29\": {\"S\": 1}, \"30\": {\"S\": 1}, \"31\": {\"S\": 1}}" energy=-139.40640258789062 free_energy=-139.40640258789062 stress="-0.005797091405838728 -0.0028359799180179834 6.949100679776166e-06 -0.0028359799180179834 -0.00779745215550065 0.00065873988205567 6.949100679776166e-06 0.00065873988205567 -0.0043367184698581696" pbc="T T T"
Li       2.40667618       0.21398025       4.38963359        0      -0.55515464       0.59550796       0.04745961       0.40487099       0.01297096      -0.30551389
Li       3.80818407       7.60896050       8.59707953        1      -0.13242938      -0.46529742      -0.55153968      -0.25855941       0.45129973       0.17995217
Li       5.30673929       7.93706957       2.03127065        2       0.05486163       0.32605732       0.22056351      -0.06838614      -0.01253247      -0.23790553
Li       0.45281865       0.42700805      11.08517620        3       0.42927888      -0.32067231      -0.59654266      -0.16569881      -0.24352995      -0.28916675
Li       3.74274414       4.52370113       8.52293647        4       0.34245260      -0.10432496      -0.34395307      -0.36297226      -0.37241414       0.32285351
Li       2.27108342       3.71602620       4.68640002        5       0.46737869      -0.08480779       0.06805794       0.16927546       0.18203533      -0.35587570
Li       0.89609340       3.84455223      10.79328930        6      -0.26079626       0.37142316      -0.07982451      -0.01798493      -0.01454773       0.04641848
Li       5.91965891       4.61480489       1.56263758        7       0.04104198      -0.40606339      -0.00005395       0.08689299       0.02483393       0.28103456
Li       2.54029431      -0.28674687      -0.12940321        8       0.80045344       0.12918026       0.32843154       0.23554078      -0.09613328       0.10655907
Li       0.47367149      -0.20340971       6.42461005        9       0.55217225      -0.34655920      -0.13405066      -0.31945944      -0.39542770      -0.10053984
Li       3.20673785       3.79084111       0.11068676       10       0.30240979       0.06907732       0.33880439       0.31048554      -0.00853664      -0.17462872
Li      -0.54168145       3.59429045       6.81579819       11      -0.14772993      -0.50825408      -1.00681897       0.08887089       0.00617644      -0.35937577
P        0.99728404       2.07049772       1.22759479       12      -0.03830665      -0.20183874       0.55845620       0.12355089       0.46103287       0.28243506
P        5.11224980       6.00555339      11.80914819       13      -0.45407388       1.29019073       0.77957777       0.15083641       0.43919721       0.51378834
P        4.18410072       5.94007787       5.20934870       14       0.16033884       0.22013545       0.76479236       0.27298611       0.22015713       0.60765624
P        2.06042419       1.95432699       7.79055359       15      -0.72438779       0.97955144       0.11934527       0.39710775       1.13877225      -0.16940473
S        5.19862350       2.39593941       1.41684689       16      -0.00075959       0.65717357      -0.50571628      -0.76644200      -0.70629823      -0.13469817
S        1.03137247       6.05667425      11.92731083       17       0.49571337       0.31320894      -0.60914206      -0.60063517       0.08410314      -0.20735060
S        2.16574616       6.04387906       5.17593907       18      -0.20857409      -0.37937731       0.78640775      -0.70810801      -0.09010740       0.03457123
S        4.12542946       1.96978227       7.93682760       19       0.09098586      -0.05098808       0.72387242      -0.46902752       0.09930639       0.30140978
S        1.68885662       1.95633659      12.30910355       20       0.12575309      -0.73075174       0.86792130       0.20134994       0.26963538      -0.28456670
S        4.27059676       5.94224716       0.71015755       21       0.49836220      -1.50649922      -1.03499013       0.06189528       0.49572149      -0.40068677
S        4.84757655       6.10833577       7.25066921       22       0.14668564      -0.64059052      -0.04451434       0.34970710      -0.37452585      -0.80803806
S        1.51211982       1.84407499       5.77879852       23       0.50474054       0.02203608      -1.34958861      -0.41397852       0.12888418       0.22659650
S        1.55889489       0.32249708       2.09432879       24       1.40974495       0.14511066      -1.47279751       0.08321291      -0.34691083      -0.00288234
S        4.28800657       7.70619538      10.98703767       25      -1.03286970       0.23583519      -0.51339619       0.28485572      -0.15705450       0.11404701
S        4.95903914       7.59732142       4.30519664       26       0.15343761      -0.37733090       1.65315430       0.00834143       0.14006859       0.40906206
S        1.24564167       0.32554784       8.66160468       27       0.14197450       1.21578040      -0.76811901       0.21515945      -0.15518273       0.26164767
S        4.64101128       4.28972845      10.87012031       28      -0.77928494      -0.95891239      -1.19234480      -0.32347488      -0.34196854      -0.11101398
S        1.85937373       3.72795771       2.05520516       29      -1.37256663      -0.25848233       0.67262373       0.39551780      -0.03857069       0.23382394
S        1.26883595       3.83101206       8.40813505       30      -1.63378933      -0.01560341       1.08231887       0.57229376      -0.83413500      -0.07440270
S        4.78514869       4.16605760       4.46022123       31       0.62293698       0.78608539       1.19160545       0.06197588       0.03368071       0.09419478
