32
Lattice="6.17176593 0.0 0.0 0.0 8.01859859 0.0 0.0 0.0 13.03281824" Properties=species:S:1:pos:R:3:spacegroup_kinds:I:1:momenta:R:3:forces:R:3 spacegroup="P 1" unit_cell=conventional occupancy="_JSON {\"0\": {\"Li\": 1}, \"1\": {\"Li\": 1}, \"2\": {\"Li\": 1}, \"3\": {\"Li\": 1}, \"4\": {\"Li\": 1}, \"5\": {\"Li\": 1}, \"6\": {\"Li\": 1}, \"7\": {\"Li\": 1}, \"8\": {\"Li\": 1}, \"9\": {\"Li\": 1}, \"10\": {\"Li\": 1}, \"11\": {\"Li\": 1}, \"12\": {\"P\": 1}, \"13\": {\"P\": 1}, \"14\": {\"P\": 1}, \"15\": {\"P\": 1}, \"16\": {\"S\": 1}, \"17\": {\"S\": 1}, \"18\": {\"S\": 1}, \"19\": {\"S\": 1}, \"20\": {\"S\": 1}, \"21\": {\"S\": 1}, \"22\": {\"S\": 1}, \"23\": {\"S\": 1}, \"24\": {\"S\": 1}, \"25\": {\"S\": 1}, \"26\": {\"S\": 1}, \"27\": {\"S\": 1}, \"28\": {\"S\": 1}, \"29\": {\"S\": 1}, \"30\": {\"S\": 1}, \"31\": {\"S\": 1}}" energy=-140.31869506835938 free_energy=-140.31869506835938 stress="-0.007170627824962139 6.21638074349562e-09 1.1303286306940663e-08 6.21638074349562e-09 -0.00825941190123558 -7.363800680337818e-10 1.1303286306940663e-08 -7.363800680337818e-10 -0.005266315303742886" pbc="T T T"
Li       2.40329652       0.26860172       4.33400832        0       0.00000000       0.00000000       0.00000000      -0.02603533       0.00549112      -0.00432180
Li       3.76846941       7.74999687       8.69880992        1       0.00000000       0.00000000       0.00000000       0.02603677      -0.00549223       0.00432254
Li       5.48917948       7.74999687       2.18240080        2       0.00000000       0.00000000       0.00000000      -0.02603605      -0.00549119       0.00432360
Li       0.68258645       0.26860172      10.85041744        3       0.00000000       0.00000000       0.00000000       0.02603573       0.00549209      -0.00431966
Li       3.76846941       4.27790102       8.69880992        4       0.00000000       0.00000000       0.00000000       0.02603648       0.00549155       0.00432245
Li       2.40329652       3.74069757       4.33400832        5       0.00000000       0.00000000       0.00000000      -0.02603592      -0.00549159      -0.00432158
Li       0.68258645       3.74069757      10.85041744        6       0.00000000       0.00000000       0.00000000       0.02603604      -0.00549243      -0.00431998
Li       5.48917948       4.27790102       2.18240080        7       0.00000000       0.00000000       0.00000000      -0.02603602       0.00549114       0.00432274
Li       3.08588297       0.00000000       0.00000000        8       0.00000000       0.00000000       0.00000000      -0.00000038      -0.00000084      -0.00000076
Li       0.00000000       0.00000000       6.51640912        9       0.00000000       0.00000000       0.00000000       0.00000052       0.00000015      -0.00000022
Li       3.08588297       4.00929929       0.00000000       10       0.00000000       0.00000000       0.00000000      -0.00000019       0.00000002      -0.00000073
Li       0.00000000       4.00929929       6.51640912       11       0.00000000       0.00000000       0.00000000       0.00000048       0.00000060      -0.00000047
P        0.94051010       2.00464965       1.16601784       12       0.00000000       0.00000000       0.00000000      -0.02067180       0.00000006       0.02376080
P        5.23125583       6.01394894      11.86680040       13       0.00000000       0.00000000       0.00000000       0.02066650       0.00000078      -0.02375985
P        4.02639307       6.01394894       5.35039128       14       0.00000000       0.00000000       0.00000000      -0.02066765       0.00000268      -0.02375642
P        2.14537286       2.00464965       7.68242696       15       0.00000000       0.00000000       0.00000000       0.02066813      -0.00000001       0.02375855
S        5.08970823       2.00464965       1.30575389       16       0.00000000       0.00000000       0.00000000      -0.25450578       0.00000031       0.01679127
S        1.08205770       6.01394894      11.72706435       17       0.00000000       0.00000000       0.00000000       0.25450730      -0.00000108      -0.01679172
S        2.00382526       6.01394894       5.21065523       18       0.00000000       0.00000000       0.00000000      -0.25450584      -0.00000068      -0.01679234
S        4.16794067       2.00464965       7.82216301       19       0.00000000       0.00000000       0.00000000       0.25450030      -0.00000134       0.01678959
S        1.68132889       2.00464965      12.25955363       20       0.00000000       0.00000000       0.00000000       0.10912223       0.00000024      -0.16719636
S        4.49043704       6.01394894       0.77326461       21       0.00000000       0.00000000       0.00000000      -0.10912055      -0.00000006       0.16718149
S        4.76721186       6.01394894       7.28967373       22       0.00000000       0.00000000       0.00000000       0.10912119       0.00000042       0.16718009
S        1.40455407       2.00464965       5.74314451       23       0.00000000       0.00000000       0.00000000      -0.10911980       0.00000009      -0.16718118
S        1.67233151       0.29287049       2.00524453       24       0.00000000       0.00000000       0.00000000       0.13957855      -0.21272577       0.08709873
S        4.49943442       7.72572810      11.02757371       25       0.00000000       0.00000000       0.00000000      -0.13957569       0.21272519      -0.08709174
S        4.75821447       7.72572810       4.51116459       26       0.00000000       0.00000000       0.00000000       0.13957572       0.21272478      -0.08709043
S        1.41355146       0.29287049       8.52165365       27       0.00000000       0.00000000       0.00000000      -0.13957652      -0.21272033       0.08709013
S        4.49943442       4.30216979      11.02757371       28       0.00000000       0.00000000       0.00000000      -0.13957767      -0.21272516      -0.08709367
S        1.67233151       3.71642880       2.00524453       29       0.00000000       0.00000000       0.00000000       0.13957798       0.21272677       0.08709928
S        1.41355146       3.71642880       8.52165365       30       0.00000000       0.00000000       0.00000000      -0.13957532       0.21271992       0.08709192
S        4.75821447       4.30216979       4.51116459       31       0.00000000       0.00000000       0.00000000       0.13957645      -0.21272516      -0.08709414
32
Lattice="6.17176593 0.0 0.0 0.0 8.01859859 0.0 0.0 0.0 13.03281824" Properties=species:S:1:pos:R:3:spacegroup_kinds:I:1:momenta:R:3:forces:R:3 spacegroup="P 1" unit_cell=conventional occupancy="_JSON {\"0\": {\"Li\": 1}, \"1\": {\"Li\": 1}, \"2\": {\"Li\": 1}, \"3\": {\"Li\": 1}, \"4\": {\"Li\": 1}, \"5\": {\"Li\": 1}, \"6\": {\"Li\": 1}, \"7\": {\"Li\": 1}, \"8\": {\"Li\": 1}, \"9\": {\"Li\": 1}, \"10\": {\"Li\": 1}, \"11\": {\"Li\": 1}, \"12\": {\"P\": 1}, \"13\": {\"P\": 1}, \"14\": {\"P\": 1}, \"15\": {\"P\": 1}, \"16\": {\"S\": 1}, \"17\": {\"S\": 1}, \"18\": {\"S\": 1}, \"19\": {\"S\": 1}, \"20\": {\"S\": 1}, \"21\": {\"S\": 1}, \"22\": {\"S\": 1}, \"23\": {\"S\": 1}, \"24\": {\"S\": 1}, \"25\": {\"S\": 1}, \"26\": {\"S\": 1}, \"27\": {\"S\": 1}, \"28\": {\"S\": 1}, \"29\": {\"S\": 1}, \"30\": {\"S\": 1}, \"31\": {\"S\": 1}}" energy=-139.948974609375 free_energy=-139.948974609375 stress="0.0013283019652590156 -0.001016846508719027 -0.0005827918066643178 -0.001016846508719027 -0.004040976986289024 -0.0007252026698552072 -0.0005827918066643178 -0.0007252026698552072 -0.005987176671624184" pbc="T T T"
Li       2.31435075       0.29211251       4.32280114        0      -0.01299049       0.04491649      -0.03014928       0.21381575      -0.08769342       0.00246955
Li       3.77334967       7.81000084       8.64373707        1      -0.12952698      -0.48970351       0.38698399      -0.04345016      -0.30803883       0.09735162
Li       5.34515785       7.74728734       2.20463023        2      -0.07130022       0.08040920      -0.51495152       0.22460291       0.05316870      -0.05289214
Li       0.51860900       0.51121901      10.77672365        3      -0.31348069       0.28488925      -0.68770005       0.01332935      -0.20369767       0.04447322
Li       3.92279043       4.19614771       8.70980198        4       0.28683369       0.12998126       0.22583024      -0.25663599      -0.02044325      -0.00532226
Li       2.42408385       3.82766257       4.20809618        5      -0.11224999      -0.76549801      -0.04605226      -0.20051432      -0.07447318       0.19430304
Li       0.76669887       3.90072533      10.94595403        6      -0.25548980       0.09726383       0.01992513       0.03799937      -0.31116721      -0.19234003
Li       5.48880041       4.28409159       2.11850805        7      -0.13123654       0.07204099      -0.27825719      -0.04122195       0.02892626       0.15060310
Li       2.88260268       0.06844882      -0.04478788        8      -0.44693102       0.29992850      -0.26736905       0.25217268      -0.37460172      -0.03669263
Li      -0.09804537       0.14132957       6.54301618        9      -0.49718728       0.14086315       0.22319275       0.03351869      -0.01986967       0.10342805
Li       3.04603111       3.96947176      -0.05700068       10       0.18855082      -0.45162189      -0.11168166       0.18816876       0.10434014       0.01908138
Li      -0.09445369       3.90251505       6.44704944       11       0.12484840      -0.11435657      -0.24812420       0.06147865      -0.02284843       0.09661449
P        0.94387693       2.07380915       1.18762579       12      -0.22376371      -0.41292527      -0.26862199      -0.16577233      -0.70778376       0.30220819
P        5.20590299       6.01750434      11.83609584       13      -0.74642325       0.29665589      -0.31803674       0.25208294       0.30376446       0.28341275
P        4.00829674       6.00619431       5.36117630       14      -0.86814037       0.61593850      -0.18061912       0.32621077      -0.83502322      -0.19332591
P        2.17117980       2.00931659       7.65216888       15       0.06747793      -1.03390000       0.43205049       0.25295752      -0.34197330       0.51798737
S        5.07315447       1.99167772       1.39500639       16       0.10825459       0.03244100       0.69196827       0.27713221       0.26477143      -0.14651930
S        1.09367346       6.05682641      11.78334225       17      -0.29231071       0.84097823       0.63260673      -0.24897492       0.31021559      -0.18884112
S        2.00621440       6.06960603       5.19878328       18       0.96463359       0.72492184      -0.18581426      -0.41737458      -0.08354547      -0.00581799
S        4.28029998       1.95727474       7.83443234       19      -0.71403087      -0.39958749      -0.77841096      -0.71798533       0.11023553      -0.11269534
S        1.67586461       1.97480397      12.26873979       20      -0.09929138       0.34216304       0.93289506      -0.13836640       0.48055896      -0.15051356
S        4.51213842       6.01204944       0.76529795       21      -0.04124876       0.14353006      -0.76522279      -0.31268799      -0.06881960      -0.14214383
S        4.76248217       5.89406777       7.28162796       22       0.60048807      -0.61785021       0.00563109       0.10500021       0.36012703       0.23283681
S        1.48038908       2.02630468       5.70863440       23       0.23559240       0.94906771       0.26697672      -0.12011366       0.03290963      -0.13388070
S        1.70464907       0.32965688       2.02920031       24       0.72428618      -0.02045939       0.87424277      -0.23549978       0.23008727      -0.06061469
S        4.41515482       7.74854904      11.01833521       25      -0.44141406      -0.70548101       0.49713611       0.07998763      -0.30235976       0.03193872
S        4.82124384       7.67165082       4.54670821       26       0.60478858       0.07141857       0.51818325       0.01187925       0.43581364      -0.20216864
S        1.37233020       0.29918409       8.55275211       27       0.33759907       1.33939631      -0.21084443       0.34960058       0.18829715      -0.41453004
S        4.53624060       4.24906243      11.01728906       28       0.02114970      -0.48954061       0.09913971      -0.03920965       0.11775526       0.02534887
S        1.72263207       3.79942315       1.95773370       29       1.04395520       0.93887962       0.04095883      -0.18126816       0.03770746      -0.06699297
S        1.36181621       3.66472881       8.51540340       30       0.22237933      -0.89213819      -0.42840538       0.30621403       0.25214261       0.02525445
S        4.69369631       4.21610828       4.49086141       31      -0.13382144      -1.05262127      -0.52746028       0.13292386       0.45151740      -0.02202063
32
Lattice="6.17176593 0.0 0.0 0.0 8.01859859 0.0 0.0 0.0 13.03281824" Properties=species:S:1:pos:R:3:spacegroup_kinds:I:1:momenta:R:3:forces:R:3 spacegroup="P 1" unit_cell=conventional occupancy="_JSON {\"0\": {\"Li\": 1}, \"1\": {\"Li\": 1}, \"2\": {\"Li\": 1}, \"3\": {\"Li\": 1}, \"4\": {\"Li\": 1}, \"5\": {\"Li\": 1}, \"6\": {\"Li\": 1}, \"7\": {\"Li\": 1}, \"8\": {\"Li\": 1}, \"9\": {\"Li\": 1}, \"10\": {\"Li\": 1}, \"11\": {\"Li\": 1}, \"12\": {\"P\": 1}, \"13\": {\"P\": 1}, \"14\": {\"P\": 1}, \"15\": {\"P\": 1}, \"16\": {\"S\": 1}, \"17\": {\"S\": 1}, \"18\": {\"S\": 1}, \"19\": {\"S\": 1}, \"20\": {\"S\": 1}, \"21\": {\"S\": 1}, \"22\": {\"S\": 1}, \"23\": {\"S\": 1}, \"24\": {\"S\": 1}, \"25\": {\"S\": 1}, \"26\": {\"S\": 1}, \"27\": {\"S\": 1}, \"28\": {\"S\": 1}, \"29\": {\"S\": 1}, \"30\": {\"S\": 1}, \"31\": {\"S\": 1}}" energy=-139.69078063964844 free_energy=-139.69078063964844 stress="-0.007248810026794672 0.00015003203589003533 -0.00048093494842760265 0.00015003203589003533 -0.004345483146607876 -0.0018556565046310425 -0.00048093494842760265 -0.0018556565046310425 -0.002193435560911894" pbc="T T T"
Li       2.48105525       0.39025046       4.50833802        0       0.44358391       0.14946289       0.29610722       0.19070826      -0.03292332      -0.19467449
Li       3.78988119       7.50462445       8.79935340        1      -0.21229366       0.07145634       0.27418788      -0.11670958       0.05258339      -0.09206511
Li       5.31900100       7.78042548       2.13733163        2       0.00320164       0.15594239       0.50602986       0.09607088      -0.04093511       0.14491516
Li       0.50594643       0.38734564      10.88005536        3       0.75950819       0.05951982       1.11173987       0.11513346       0.15858912      -0.08216417
Li       3.81257304       4.09234315       8.69314002        4      -0.08947500      -0.11088634      -0.20536305       0.05522405       0.14635348      -0.14231962
Li       2.31201928       3.87606686       4.25463745        5       0.08659700       0.78543976       0.18900315      -0.15994805       0.03949793       0.07368393
Li       0.73683414       3.73851801      10.86981878        6      -0.07704111      -0.07688771       0.26171862       0.05781994       0.14839807      -0.04507034
Li       5.62273642       4.28813504       2.12998456        7      -0.03302562      -0.07291696      -0.04310450      -0.31705835       0.36880291      -0.04304477
Li       2.85502450      -0.26349341      -0.01219487        8      -0.21142176      -0.43323883      -0.00980425      -0.24994624       0.24237236       0.00459483
Li      -0.39523290       0.09953206       6.81180496        9      -0.08395290       0.16999886       0.56879504       0.27814576       0.02130054      -0.17367518
Li       3.19322881       3.97105020       0.05282044       10       0.13136452       0.01343998       0.33773443       0.07254482      -0.13596462      -0.13321702
Li      -0.10704228       3.75177332       6.63075304       11      -0.26942558       0.01372430       0.45935447      -0.17523123       0.12002751      -0.18308669
P        1.00256528       2.00990547       1.27812367       12      -0.34542164       1.27182473      -0.66948950      -0.10009142       0.13510291      -0.66053772
P        5.21229082       6.03636872      11.77056337       13       0.22850800      -0.29376907      -0.82158375      -1.06883955      -0.02526075       0.98991573
P        4.06516767       5.94382624       5.29959234       14      -0.48304114       1.21039380      -0.78822605      -0.54945886       1.13768196       0.01654349
P        2.18692410       1.92763111       7.65119551       15      -1.11864737      -0.98190052      -0.01331955      -0.45492011      -0.52281135       0.45681265
S        5.15595875       2.07346333       1.47583142       16       1.34410618       0.51088640       0.13501068      -0.31599152      -0.20148014      -0.13571645
S        1.01563728       6.23215191      11.76844912       17      -0.62071332       0.42190816      -0.05876249       0.73153591      -0.56305486      -0.20825335
S        2.03377844       6.22422401       5.11637020       18       0.86526242       0.25449382      -0.75938761       0.19495048      -0.79216653       0.21891978
S        4.23422477       1.81803193       7.77955132       19       0.64080626      -1.45400058       0.04536201      -0.00217000       0.31100187       0.13559389
S        1.67827777       2.07653862      12.29688150       20       0.06167684      -0.54725340       0.24414014       0.02133918      -0.43863723       0.29725006
S        4.32931084       6.02841162       0.69555437       21      -1.36351181       0.07559981      -0.24910375       0.60838115      -0.43638945      -0.05557826
S        4.81318121       5.88048093       7.26047594       22       0.45242296      -0.63475434      -1.23188620      -0.10229017      -0.28333214       0.04147865
S        1.41816846       2.04267806       5.73320347       23      -0.29734273      -1.24293966       1.00101326      -0.10418358      -0.01535010       0.05659796
S        1.69740599       0.30938834       2.15967417       24       0.35518907      -1.06453492       0.78865109       0.00530329       0.07560451      -0.19962174
S        4.35376953       7.73794286      11.08983306       25      -0.59118232       0.16111505      -0.12022901      -0.10806493       0.43027428      -0.57341021
S        4.85027085       7.72237462       4.57555519       26      -0.37035857      -0.08679686      -1.24936621       0.20150131      -0.13397542      -0.09556034
S        1.47477156       0.15304675       8.57203014       27       0.45848648      -1.74282870      -0.05047289      -0.00489983       0.87333566      -0.44335651
S        4.52801262       4.28126532      10.92993961       28       0.24532717       1.59662095      -0.57434292       0.21954295       0.10642344       0.21663217
S        1.70966426       3.81591989       1.92542926       29      -0.43591410       0.68626690       0.86105452       0.41967487       0.09947554       0.45971793
S        1.46158774       3.69550303       8.47436302       30       0.44685285       1.28141599      -0.01093997       0.18955274      -0.34894365       0.20286672
S        4.66086732       4.27643827       4.34543535       31       0.07987502      -0.14680201      -0.22452048       0.37237418      -0.49560082       0.14582902
32
Lattice="6.17176593 0.0 0.0 0.0 8.01859859 0.0 0.0 0.0 13.03281824" Properties=species:S:1:pos:R:3:spacegroup_kinds:I:1:momenta:R:3:forces:R:3 spacegroup="P 1" unit_cell=conventional occupancy="_JSON {\"0\": {\"Li\": 1}, \"1\": {\"Li\": 1}, \"2\": {\"Li\": 1}, \"3\": {\"Li\": 1}, \"4\": {\"Li\": 1}, \"5\": {\"Li\": 1}, \"6\": {\"Li\": 1}, \"7\": {\"Li\": 1}, \"8\": {\"Li\": 1}, \"9\": {\"Li\": 1}, \"10\": {\"Li\": 1}, \"11\": {\"Li\": 1}, \"12\": {\"P\": 1}, \"13\": {\"P\": 1}, \"14\": {\"P\": 1}, \"15\": {\"P\": 1}, \"16\": {\"S\": 1}, \"17\": {\"S\": 1}, \"18\": {\"S\": 1}, \"19\": {\"S\": 1}, \"20\": {\"S\": 1}, \"21\": {\"S\": 1}, \"22\": {\"S\": 1}, \"23\": {\"S\": 1}, \"24\": {\"S\": 1}, \"25\": {\"S\": 1}, \"26\": {\"S\": 1}, \"27\": {\"S\": 1}, \"28\": {\"S\": 1}, \"29\": {\"S\": 1}, \"30\": {\"S\": 1}, \"31\": {\"S\": 1}}" energy=-139.42393493652344 free_energy=-139.42393493652344 stress="0.0010841424809768796 -0.0014437305508181453 -4.0656159399077296e-05 -0.0014437305508181453 -0.010751997120678425 -0.002325925976037979 -4.0656159399077296e-05 -0.002325925976037979 -0.004163441248238087" pbc="T T T"
Li       2.75977061       0.48095807       4.29168327        0      -0.07772078       0.08898822      -0.11006543      -0.40910703      -0.08017206       0.12281834
Li       3.89052516       7.39890143       8.58325404        1       0.26465587      -0.00344284      -0.46469472      -0.28765827       0.28058758       0.25884265
Li       5.36012935       7.90383375       1.95974029        2      -0.33168226       0.12808833      -1.01514403      -0.05144816      -0.15023492       0.08310620
Li       0.37353869       0.30749579      11.19437769        3      -0.51403614      -0.13265867      -0.36180044       0.43553573       0.16188446      -0.34779984
Li       3.88789229       4.20847615       8.50876732        4       0.12729134       0.44381546       0.22857987       0.02210218       0.07550675       0.22777595
Li       2.27826802       3.84182332       4.44635635        5      -0.26703398      -0.49531748       0.36792428      -0.07329530      -0.05787694      -0.00830228
Li       0.83366929       3.82220887      10.77762027        6       0.09901656       0.42820834      -0.49776077      -0.05362824      -0.02934752       0.15881146
Li       5.42773499       4.51832438       2.06097664        7       0.26465494      -0.41698436       0.24121693       0.35155797      -0.26438415       0.21685849
Li       2.43928546      -0.31178076      -0.01993656        8      -0.53950127       0.01527635       0.12798198       0.21225324      -0.13284317      -0.11057293
Li      -0.26752734       0.21612006       6.75391601        9       0.19045961       0.00498207      -0.71567575       0.11734675      -0.11356927      -0.13303401
Li       3.49501417       3.61776796       0.02113900       10       0.79977836      -0.31956957      -0.22588780      -0.01022873      -0.06771916      -0.04116242
Li      -0.28042973       3.51517680       6.43528368       11       0.06894730      -0.22156957      -0.49231184      -0.08846533       0.24509239       0.17277192
P        1.01277923       2.09356694       1.30944265       12      -0.79258623       0.54142463       0.56225285      -0.98717940       0.06419791      -1.68644428
P        5.06464473       6.18241513      11.86770164       13       0.64108917      -0.42442704      -0.94004224       0.95000315      -1.19997394      -0.59680068
P        4.07870014       6.00253335       5.15701129       14       0.26954840       0.28593466      -0.27169491      -0.93455356       0.41644800       0.69472897
P        2.14057778       1.90116943       7.77418062       15       0.79397873      -0.10564213       0.80481201       0.00122772      -0.64320290      -0.50200343
S        5.08478262       2.18517967       1.43363206       16      -0.14960562       0.56224112      -1.27507280       0.58898681      -0.07178313      -0.13438892
S        1.02701165       6.02784821      11.84367566       17      -1.31728300      -1.85419757       0.65246094      -0.93611127       0.58845961      -0.00643814
S        1.99453843       6.16830112       5.11021927       18      -0.10880406      -0.12576294      -0.29582593       1.13771510      -0.11030744      -0.10715809
S        4.18124583       1.85275889       7.95138556       19      -0.67535396       0.90048581       1.23802167       0.57266057       0.01073446      -0.28550777
S        1.75014067       1.94000516      12.30475178       20      -0.24494441      -1.15540064       0.24381888      -0.47808892       0.21174997       0.53595507
S        4.27502985       6.01342335       0.70542271       21      -0.49823615       1.57695962       1.52082995      -0.23477864       0.43867731       0.49620423
S        4.87496109       5.89462279       7.09874359       22       0.74694127       0.12988255      -1.29112827       0.06508724      -0.00198738       0.06389055
S        1.34446418       1.88731214       5.79522114       23      -0.05290173      -0.58482743       0.01387071       0.43923900      -0.04675158       0.12005116
S        1.62642829       0.40051265       2.13624017       24      -0.70291454       0.29572345      -0.00881641       0.17696451      -1.06724334       0.54528260
S        4.28026484       7.85148321      11.02248155       25       0.29897899       0.61484528      -0.40499490       0.04086811      -0.21915109       0.04791544
S        4.95085775       7.69209531       4.39340465       26       0.47509273      -0.03323500      -0.48340374       0.12013361      -0.04337085      -0.03056536
S        1.50519185       0.17632887       8.65900924       27      -1.50779246       0.26690622       3.00934886      -0.34780955       0.20826727       0.00267451
S        4.56823315       4.37269070      10.94335065       28       0.70199282       0.79108011       0.45325004      -0.12104808       0.36610949      -0.07464680
S        1.82977486       3.72641788       2.02256782       29       1.28976806      -1.01745612      -0.00726345       0.28189504       1.18911695       0.49017781
S        1.55636663       3.69419855       8.45279170       30       0.14667912      -0.14495093      -0.07118728      -0.59566742       0.52185714       0.31267142
S        4.71472998       4.25296426       4.38108786       31       0.60152331      -0.03939984      -0.53159835       0.09549113      -0.47877026      -0.48571163
32
Lattice="6.17176593 0.0 0.0 0.0 8.01859859 0.0 0.0 0.0 13.03281824" Properties=species:S:1:pos:R:3:spacegroup_kinds:I:1:momenta:R:3:forces:R:3 spacegroup="P 1" unit_cell=conventional occupancy="_JSON {\"0\": {\"Li\": 1}, \"1\": {\"Li\": 1}, \"2\": {\"Li\": 1}, \"3\": {\"Li\": 1}, \"4\": {\"Li\": 1}, \"5\": {\"Li\": 1}, \"6\": {\"Li\": 1}, \"7\": {\"Li\": 1}, \"8\": {\"Li\": 1}, \"9\": {\"Li\": 1}, \"10\": {\"Li\": 1}, \"11\": {\"Li\": 1}, \"12\": {\"P\": 1}, \"13\": {\"P\": 1}, \"14\": {\"P\": 1}, \"15\": {\"P\": 1}, \"16\": {\"S\": 1}, \"17\": {\"S\": 1}, \"18\": {\"S\": 1}, \"19\": {\"S\": 1}, \"20\": {\"S\": 1}, \"21\": {\"S\": 1}, \"22\": {\"S\": 1}, \"23\": {\"S\": 1}, \"24\": {\"S\": 1}, \"25\": {\"S\": 1}, \"26\": {\"S\": 1}, \"27\": {\"S\": 1}, \"28\": {\"S\": 1}, \"29\": {\"S\": 1}, \"30\": {\"S\": 1}, \"31\": {\"S\": 1}}" energy=-139.18357849121094 free_energy=-139.18357849121094 stress="-0.0036288995761424303 0.00024814766948111355 0.0001599643292138353 0.00024814766948111355 -0.005039216950535774 -0.00027251517167314887 0.0001599643292138353 -0.00027251517167314887 -0.0062395124696195126" pbc="T T T"
Li       2.71757011       0.44541754       4.33618322        0       0.32756246      -0.74088519       0.14398452      -0.14494751      -0.25052500      -0.05328126
Li       3.73807319       7.79149287       8.68373693        1       0.03656772       0.58978865       0.41532020       0.10580835      -0.42556664       0.02289031
Li       5.37512657       8.01798417       1.72436928        2       0.04913538      -0.27720480       0.17513076      -0.22697645      -0.13533583       0.28543955
Li       0.47309263       0.48177558      10.91930670        3      -0.68413224      -0.00477723       0.73999538      -0.19708148      -0.16019928       0.53442788
Li       3.56650133       4.44335408       8.76329708        4      -0.63180610       0.23296892      -0.02476541       0.60222256       0.09064857      -0.12662041
Li       2.21355930       3.82717144       4.54535370        5       0.07577600       0.04785529      -0.35997359       0.04303046      -0.25808027      -0.08322432
Li       0.88475629       3.75686626      10.62611133        6       0.47399159      -0.15426999      -0.15485008      -0.18161145       0.11148258       0.35399482
Li       5.90597175       4.56485203       2.04601326        7       0.73175884       0.41024850      -0.86669741      -0.31191683       0.02676557       0.06560668
Li       2.41368797      -0.46011140       0.07994275        8       0.14825821      -0.46528131      -0.38663012      -0.07471977       0.12862810      -0.26831636
Li      -0.14615873       0.01274019       6.40485562        9       0.43280797      -0.57231240       0.09082219       0.24460782       0.04683758       0.27985477
Li       3.57996706       3.51075203      -0.11728025       10      -0.41418072       0.26699731      -0.11457988      -0.09035920       0.08829545       0.01311814
Li      -0.35571943       3.58200581       6.59695199       11      -0.42638155       0.10233214       1.11192919      -0.05848206       0.07203943      -0.02986896
P        1.01637489       2.14057297       1.23810444       12       1.04410044       0.01962553       1.07265331      -0.32031575      -0.33787853      -0.03332705
P        5.07471923       6.11632911      11.97453304       13       0.28995466      -0.60750180       1.09958172       0.30333903      -0.91055387      -1.64188755
P        4.17962580       5.96240446       5.14231843       14       1.94066944      -0.82992058       0.21491221      -1.01423597       0.15697563       0.43045181
P        2.08842392       1.84511872       7.84906348       15      -0.72188764       0.74749319       0.87913745       0.74276257       0.89275861      -0.76974213
S        5.08882489       2.29981654       1.29794387       16      -0.11801718       0.58827343       0.76364175       0.86385286       0.07353586       0.26944587
S        0.91640546       5.91919047      11.91957152       17      -0.14347578       0.00756358       0.36493854       0.60166329       0.55725139       0.24428393
S        2.10167189       6.07580516       5.07530032       18      -0.06232819      -0.44155724      -0.14165917       0.54262137       0.37197256       0.06936851