32
Lattice="6.17176593 0.0 0.0 0.0 8.01859859 0.0 0.0 0.0 13.03281824" Properties=species:S:1:pos:R:3:spacegroup_kinds:I:1:forces:R:3 spacegroup="P 1" unit_cell=conventional occupancy="_JSON {\"0\": {\"Li\": 1}, \"1\": {\"Li\": 1}, \"2\": {\"Li\": 1}, \"3\": {\"Li\": 1}, \"4\": {\"Li\": 1}, \"5\": {\"Li\": 1}, \"6\": {\"Li\": 1}, \"7\": {\"Li\": 1}, \"8\": {\"Li\": 1}, \"9\": {\"Li\": 1}, \"10\": {\"Li\": 1}, \"11\": {\"Li\": 1}, \"12\": {\"P\": 1}, \"13\": {\"P\": 1}, \"14\": {\"P\": 1}, \"15\": {\"P\": 1}, \"16\": {\"S\": 1}, \"17\": {\"S\": 1}, \"18\": {\"S\": 1}, \"19\": {\"S\": 1}, \"20\": {\"S\": 1}, \"21\": {\"S\": 1}, \"22\": {\"S\": 1}, \"23\": {\"S\": 1}, \"24\": {\"S\": 1}, \"25\": {\"S\": 1}, \"26\": {\"S\": 1}, \"27\": {\"S\": 1}, \"28\": {\"S\": 1}, \"29\": {\"S\": 1}, \"30\": {\"S\": 1}, \"31\": {\"S\": 1}}" energy=-140.31869506835938 free_energy=-140.31869506835938 stress="-0.007170627824962139 6.21638074349562e-09 1.1303286306940663e-08 6.21638074349562e-09 -0.00825941190123558 -7.363800680337818e-10 1.1303286306940663e-08 -7.363800680337818e-10 -0.005266315303742886" pbc="T T T"
Li       2.40329652       0.26860172       4.33400832        0      -0.02603533       0.00549112      -0.00432180
Li       3.76846941       7.74999687       8.69880992        1       0.02603677      -0.00549223       0.00432254
Li       5.48917948       7.74999687       2.18240080        2      -0.02603605      -0.00549119       0.00432360
Li       0.68258645       0.26860172      10.85041744        3       0.02603573       0.00549209      -0.00431966
Li       3.76846941       4.27790102       8.69880992        4       0.02603648       0.00549155       0.00432245
Li       2.40329652       3.74069757       4.33400832        5      -0.02603592      -0.00549159      -0.00432158
Li       0.68258645       3.74069757      10.85041744        6       0.02603604      -0.00549243      -0.00431998
Li       5.48917948       4.27790102       2.18240080        7      -0.02603602       0.00549114       0.00432274
Li       3.08588297       0.00000000       0.00000000        8      -0.00000038      -0.00000084      -0.00000076
Li       0.00000000       0.00000000       6.51640912        9       0.00000052       0.00000015      -0.00000022
Li       3.08588297       4.00929929       0.00000000       10      -0.00000019       0.00000002      -0.00000073
Li       0.00000000       4.00929929       6.51640912       11       0.00000048       0.00000060      -0.00000047
P        0.94051010       2.00464965       1.16601784       12      -0.02067180       0.00000006       0.02376080
P        5.23125583       6.01394894      11.86680040       13       0.02066650       0.00000078      -0.02375985
P        4.02639307       6.01394894       5.35039128       14      -0.02066765       0.00000268      -0.02375642
P        2.14537286       2.00464965       7.68242696       15       0.02066813      -0.00000001       0.02375855
S        5.08970823       2.00464965       1.30575389       16      -0.25450578       0.00000031       0.01679127
S        1.08205770       6.01394894      11.72706435       17       0.25450730      -0.00000108      -0.01679172
S        2.00382526       6.01394894       5.21065523       18      -0.25450584      -0.00000068      -0.01679234
S        4.16794067       2.00464965       7.82216301       19       0.25450030      -0.00000134       0.01678959
S        1.68132889       2.00464965      12.25955363       20       0.10912223       0.00000024      -0.16719636
S        4.49043704       6.01394894       0.77326461       21      -0.10912055      -0.00000006       0.16718149
S        4.76721186       6.01394894       7.28967373       22       0.10912119       0.00000042       0.16718009
S        1.40455407       2.00464965       5.74314451       23      -0.10911980       0.00000009      -0.16718118
S        1.67233151       0.29287049       2.00524453       24       0.13957855      -0.21272577       0.08709873
S        4.49943442       7.72572810      11.02757371       25      -0.13957569       0.21272519      -0.08709174
S        4.75821447       7.72572810       4.51116459       26       0.13957572       0.21272478      -0.08709043
S        1.41355146       0.29287049       8.52165365       27      -0.13957652      -0.21272033       0.08709013
S        4.49943442       4.30216979      11.02757371       28      -0.13957767      -0.21272516      -0.08709367
S        1.67233151       3.71642880       2.00524453       29       0.13957798       0.21272677       0.08709928
S        1.41355146       3.71642880       8.52165365       30      -0.13957532       0.21271992       0.08709192
S        4.75821447       4.30216979       4.51116459       31       0.13957645      -0.21272516      -0.08709414
