4
Lattice="3.128588 0.0 0.0 -1.5642939988088433 2.709436998432005 0.0 0.0 0.0 5.016955" Properties=species:S:1:pos:R:3:spacegroup_kinds:I:1:momenta:R:3:forces:R:3 spacegroup="P 1" unit_cell=conventional occupancy="_JSON {\"0\": {\"Al\": 1}, \"1\": {\"Al\": 1}, \"2\": {\"N\": 1}, \"3\": {\"N\": 1}}" energy=-29.623743057250977 free_energy=-29.623743057250977 stress="0.0043006641790270805 -0.008672436699271202 0.002881882479414344 -0.008672436699271202 -0.00694390619173646 -0.00443450128659606 0.002881882479414344 -0.00443450128659606 -0.01483919844031334" pbc="T T T"
Al       1.54321202       0.89379622       2.53645984        0      -0.00705430      -0.41529126       0.79444914      -0.25249776       0.39303061      -0.87834585
Al       0.03580900       1.79893953       4.98957807        1       0.09337906      -0.29525136      -0.61191916      -0.16601497       0.14057750       0.62745184
N        1.59619753       0.90645094       4.40111842        2      -0.02189792       1.09350648       0.27120830      -0.08899370      -0.09593373       0.34911186
N       -0.05911257       1.83464209       1.91219258        3      -0.06442687      -0.38296389      -0.45373831       0.50750631      -0.43767446      -0.09821804
