4
Lattice="3.128588 0.0 0.0 -1.5642939988088433 2.709436998432005 0.0 0.0 0.0 5.016955" Properties=species:S:1:pos:R:3:spacegroup_kinds:I:1:momenta:R:3:forces:R:3 spacegroup="P 1" unit_cell=conventional occupancy="_JSON {\"0\": {\"Al\": 1}, \"1\": {\"Al\": 1}, \"2\": {\"N\": 1}, \"3\": {\"N\": 1}}" energy=-29.67371940612793 free_energy=-29.67371940612793 stress="-0.002225159201771021 -1.3038860515734996e-06 -2.5706926365387517e-08 -1.3038860515734996e-06 -0.0022273955401033163 -3.7034066480146066e-08 -2.5706926365387517e-08 -3.7034066480146066e-08 -0.005453637335449457" pbc="T T T"
Al       1.56429556       0.90314476       2.50490041        0       0.68448204       0.53670047       0.91071479      -0.00003423       0.00002077       0.00553158
Al      -0.00000156       1.80629224       5.01337791        1       0.31075784       0.39520501      -1.87833745       0.00003503      -0.00001941       0.00552364
N        1.56429556       0.90314476       4.41849749        2      -0.23293981      -0.79739853      -0.40745139      -0.00003663       0.00002030      -0.00553022
N       -0.00000156       1.80629224       1.91001999        3      -0.76230006      -0.13450696       1.37507406       0.00003582      -0.00002179      -0.00552526
4
Lattice="3.128588 0.0 0.0 -1.5642939988088433 2.709436998432005 0.0 0.0 0.0 5.016955" Properties=species:S:1:pos:R:3:spacegroup_kinds:I:1:momenta:R:3:forces:R:3 spacegroup="P 1" unit_cell=conventional occupancy="_JSON {\"0\": {\"Al\": 1}, \"1\": {\"Al\": 1}, \"2\": {\"N\": 1}, \"3\": {\"N\": 1}}" energy=-29.43359375 free_energy=-29.43359375 stress="-0.013773581944406033 -0.016446389257907867 0.012948835268616676 -0.016446389257907867 -0.023968800902366638 0.009969762526452541 0.012948835268616676 0.009969762526452541 -0.012059538625180721" pbc="T T T"
Al       1.60246140       0.92231284       2.54150849        0       0.57498200      -0.13491981       1.02882490      -1.31301308      -0.49033469      -0.87831306
Al       0.00328788       1.81111139       4.94718774        1      -0.44725820       0.00118052      -1.07867337      -0.30154258      -0.59423220       1.18011844
N        1.53678588       0.85870780       4.38099595        2       0.14052044      -0.46066729       0.20203888       0.28490880       0.67984474       1.25553608
N       -0.05228244       1.80432671       2.00436659        3      -0.26824433       0.59440657      -0.15219038       1.32964683       0.40472221      -1.55734122
4
Lattice="3.128588 0.0 0.0 -1.5642939988088433 2.709436998432005 0.0 0.0 0.0 5.016955" Properties=species:S:1:pos:R:3:spacegroup_kinds:I:1:momenta:R:3:forces:R:3 spacegroup="P 1" unit_cell=conventional occupancy="_JSON {\"0\": {\"Al\": 1}, \"1\": {\"Al\": 1}, \"2\": {\"N\": 1}, \"3\": {\"N\": 1}}" energy=-29.567256927490234 free_energy=-29.567256927490234 stress="0.012915589846670628 0.0017025358974933624 0.0035794058348983526 0.0017025358974933624 -0.02585703320801258 -0.005369147285819054 0.0035794058348983526 -0.005369147285819054 -0.011435041204094887" pbc="T T T"
Al       1.59598186       0.90138486       2.55101266        0      -0.85003962      -0.64755155      -0.41676271      -0.33522671       0.74370342      -1.26921058
Al      -0.01311801       1.79082858       4.96769656        1      -0.24557074      -0.74327796       1.65595761      -0.18280369      -0.17026776       1.21499586
N        1.52960411       0.86779350       4.41996343        2       0.16413115       0.60763580       0.63654583       0.31887740       0.39321405      -0.09056908
N       -0.00060095       1.87475188       1.90756519        3       0.93147916       0.78319369      -1.87574062       0.19915310      -0.96664989       0.14478385
4
Lattice="3.128588 0.0 0.0 -1.5642939988088433 2.709436998432005 0.0 0.0 0.0 5.016955" Properties=species:S:1:pos:R:3:spacegroup_kinds:I:1:momenta:R:3:forces:R:3 spacegroup="P 1" unit_cell=conventional occupancy="_JSON {\"0\": {\"Al\": 1}, \"1\": {\"Al\": 1}, \"2\": {\"N\": 1}, \"3\": {\"N\": 1}}" energy=-29.406274795532227 free_energy=-29.406274795532227 stress="0.010688872076570988 0.016498062759637833 -0.00816396065056324 0.016498062759637833 -0.009423154406249523 -0.01555398665368557 -0.00816396065056324 -0.01555398665368557 -0.06125408411026001" pbc="T T T"
Al       1.53423929       0.87298461       2.51007455        0      -1.60925385       0.09619188      -1.03262313       0.74608719       1.00298679       0.03482430
Al      -0.01349005       1.78470221       5.05709162        1       0.21561262      -0.04339805       1.72443315       0.02271176       0.40732983      -1.66436887
N        1.55208977       0.92225133       4.42203510        2       0.38659366       0.63935826      -0.93002934       0.04495849      -0.39009744      -0.56986165
N        0.09667396       1.88681817       1.81230437        3       1.00704755      -0.69215212       0.23821936      -0.81375742      -1.02021885       2.19940639
4
Lattice="3.128588 0.0 0.0 -1.5642939988088433 2.709436998432005 0.0 0.0 0.0 5.016955" Properties=species:S:1:pos:R:3:spacegroup_kinds:I:1:momenta:R:3:forces:R:3 spacegroup="P 1" unit_cell=conventional occupancy="_JSON {\"0\": {\"Al\": 1}, \"1\": {\"Al\": 1}, \"2\": {\"N\": 1}, \"3\": {\"N\": 1}}" energy=-29.201906204223633 free_energy=-29.201906204223633 stress="-0.026440896093845367 0.03815548121929169 -0.03138267621397972 0.03815548121929169 -0.0048773144371807575 0.0015437490073964 -0.03138267621397972 0.0015437490073964 -0.051819656044244766" pbc="T T T"
Al       1.49382403       0.87740192       2.48150490        0      -0.08661643      -0.02748809       0.25595451       2.48428297      -0.46186614       1.22611856
Al      -0.02076736       1.79337851       5.08843295        1       0.00716772       0.60209086      -1.27068171       0.64723134       0.57433522      -2.36004257
N        1.60157221       0.96971685       4.33361319        2       0.49437238       0.53651015      -0.17473399      -0.53882366      -0.70145392       1.74609208
N        0.13924905       1.81421453       1.89535167        3      -0.41492363      -1.11111290       1.18946117      -2.59269047       0.58898461      -0.61216807
4
Lattice="3.128588 0.0 0.0 -1.5642939988088433 2.709436998432005 0.0 0.0 0.0 5.016955" Properties=species:S:1:pos:R:3:spacegroup_kinds:I:1:momenta:R:3:forces:R:3 spacegroup="P 1" unit_cell=conventional occupancy="_JSON {\"0\": {\"Al\": 1}, \"1\": {\"Al\": 1}, \"2\": {\"N\": 1}, \"3\": {\"N\": 1}}" energy=-29.574626922607422 free_energy=-29.574626922607422 stress="-0.023617880418896675 -0.014321189373731613 -0.011127878911793232 -0.014321189373731613 0.015030011534690857 -0.002854582155123353 -0.011127878911793232 -0.002854582155123353 -0.014440241269767284" pbc="T T T"
Al       1.53421962       0.88369270       2.53780579        0       1.55944033       0.36820903       1.55970992       0.29264295      -0.24000412      -0.91367626
Al      -0.00048006       1.82107764       4.98837345        1       1.01688541       0.86374309      -2.47525451       0.94369113       0.52251494       0.78486383
N        1.63583964       0.96584649       4.40663185        2      -0.31021873      -0.52489307       1.27117444      -1.15103340      -0.78907144       0.05688024
N       -0.01177523       1.75252279       1.90648730        3      -2.26610698      -0.70705905      -0.35562995      -0.08530066       0.50656050       0.07193170
4
Lattice="3.128588 0.0 0.0 -1.5642939988088433 2.709436998432005 0.0 0.0 0.0 5.016955" Properties=species:S:1:pos:R:3:spacegroup_kinds:I:1:momenta:R:3:forces:R:3 spacegroup="P 1" unit_cell=conventional occupancy="_JSON {\"0\": {\"Al\": 1}, \"1\": {\"Al\": 1}, \"2\": {\"N\": 1}, \"3\": {\"N\": 1}}" energy=-29.3720703125 free_energy=-29.3720703125 stress="-0.0056298584677278996 -0.01871926710009575 0.01584947109222412 -0.01871926710009575 -0.03227279707789421 0.017212243750691414 0.01584947109222412 0.017212243750691414 -0.007298278622329235" pbc="T T T"
Al       1.57072834       0.88046443       2.56331973        0      -0.00039256      -0.37629485      -0.57844011      -1.34386170      -0.44065687      -1.50708067
Al       0.05055072       1.86456080       4.94968572        1       0.52727017       0.77034113       1.04960100      -0.49129128      -1.36433780       1.82585037
N        1.58204799       0.88176659       4.44992394        2      -0.27832235      -1.02263366      -0.55459284       0.15003932       1.16376150      -0.85894984
N       -0.12661085       1.75915454       1.88869863        3      -0.24855530       0.62858739       0.08343183       1.68511367       0.64123350       0.54018021
4
Lattice="3.128588 0.0 0.0 -1.5642939988088433 2.709436998432005 0.0 0.0 0.0 5.016955" Properties=species:S:1:pos:R:3:spacegroup_kinds:I:1:momenta:R:3:forces:R:3 spacegroup="P 1" unit_cell=conventional occupancy="_JSON {\"0\": {\"Al\": 1}, \"1\": {\"Al\": 1}, \"2\": {\"N\": 1}, \"3\": {\"N\": 1}}" energy=-29.596923828125 free_energy=-29.596923828125 stress="0.01597628928720951 -0.004506089724600315 0.006018639076501131 -0.004506089724600315 -0.025499483570456505 -0.004597069229930639 0.006018639076501131 -0.004597069229930639 -0.010014079511165619" pbc="T T T"
Al       1.53284806       0.86390067       2.51395077        0      -1.59464521      -0.16469693      -1.74991291      -0.27820569       0.89915735      -0.15420564
Al       0.06317842       1.83227865       5.00948378        1       0.38440000      -1.80666590       1.59449896      -0.58708614      -0.41271690       0.16725148
N        1.58572477       0.89623784       4.41422579        2       0.14193189       1.12964906      -0.09119190       0.25704247       0.38076797       0.00228037
N       -0.08152106       1.83862420       1.90381444        3       1.06831326       0.84171375       0.24660577       0.60824937      -0.86720830      -0.01532631
4
Lattice="3.128588 0.0 0.0 -1.5642939988088433 2.709436998432005 0.0 0.0 0.0 5.016955" Properties=species:S:1:pos:R:3:spacegroup_kinds:I:1:momenta:R:3:forces:R:3 spacegroup="P 1" unit_cell=conventional occupancy="_JSON {\"0\": {\"Al\": 1}, \"1\": {\"Al\": 1}, \"2\": {\"N\": 1}, \"3\": {\"N\": 1}}" energy=-29.462553024291992 free_energy=-29.462553024291992 stress="-0.005696920212358236 0.010849404148757458 -0.003906372934579849 0.010849404148757458 -0.019133886322379112 -0.01270329300314188 -0.003906372934579849 -0.01270329300314188 -0.011871101334691048" pbc="T T T"
Al       1.48347330       0.88264395       2.44527932        0      -0.30454504       1.01149507      -0.60004523       0.88393056       0.95768332       1.70776951
Al       0.06164410       1.77681259       5.07306069        1      -0.86715261      -0.75617424       0.43048964      -0.30080420       0.71655273      -1.72280169
N        1.61717710       0.94947182       4.40498422        2       0.38645858       0.04830127       0.18623223      -0.07234225      -0.67486012       0.48911291
N       -0.01486934       1.85626150       1.92266703        3       0.78523898      -0.30362212      -0.01667677      -0.51078439      -0.99937600      -0.47408098
4
Lattice="3.128588 0.0 0.0 -1.5642939988088433 2.709436998432005 0.0 0.0 0.0 5.016955" Properties=species:S:1:pos:R:3:spacegroup_kinds:I:1:momenta:R:3:forces:R:3 spacegroup="P 1" unit_cell=conventional occupancy="_JSON {\"0\": {\"Al\": 1}, \"1\": {\"Al\": 1}, \"2\": {\"N\": 1}, \"3\": {\"N\": 1}}" energy=-29.518749237060547 free_energy=-29.518749237060547 stress="-0.0233710166066885 0.006540106143802404 -0.01609826646745205 0.006540106143802404 0.006697372533380985 -0.00048237721784971654 -0.01609826646745205 -0.00048237721784971654 -0.02216128446161747" pbc="T T T"
Al       1.50607638       0.94974319       2.46463698        0       1.15921287       0.62635225       1.50689892       1.24247527      -0.60704625       1.15697300
Al       0.01335471       1.75088038       5.06242872        1      -0.91112016       0.14825224      -0.88962623       0.51474649       0.69610584      -1.43088901
N        1.62637957       0.90489621       4.42127855        2      -0.14223537      -0.64065013       0.21498436      -0.71771866      -0.51824176      -0.07984911
N        0.02538009       1.82158366       1.88963025        3      -0.10585737      -0.13395437      -0.83225711      -1.03950310       0.42918211       0.35376459
4
Lattice="3.128588 0.0 0.0 -1.5642939988088433 2.709436998432005 0.0 0.0 0.0 5.016955" Properties=species:S:1:pos:R:3:spacegroup_kinds:I:1:momenta:R:3:forces:R:3 spacegroup="P 1" unit_cell=conventional occupancy="_JSON {\"0\": {\"Al\": 1}, \"1\": {\"Al\": 1}, \"2\": {\"N\": 1}, \"3\": {\"N\": 1}}" energy=-29.605009078979492 free_energy=-29.605009078979492 stress="0.0015960182063281536 -0.006785856559872627 -0.003095241729170084 -0.006785856559872627 0.0017806527903303504 0.0017242772737517953 -0.003095241729170084 0.0017242772737517953 -0.023114068433642387" pbc="T T T"
Al       1.56693922       0.93861031       2.54470910        0       1.44875309      -0.98943831       1.48437338      -0.01659288      -0.29131672      -1.20301831
Al      -0.01304569       1.78057344       4.99752450        1       0.01689801       1.11024984      -1.70729956       0.38438347       0.02358420       0.50762677
N        1.58384201       0.87104973       4.42155574        2      -0.67927469      -0.02704954      -0.19037153      -0.39236540       0.15177774      -0.39793038
N        0.00122214       1.81989278       1.85992051        3      -0.78637643      -0.09376199       0.41329766       0.02457489       0.11595467       1.09332180
4
Lattice="3.128588 0.0 0.0 -1.5642939988088433 2.709436998432005 0.0 0.0 0.0 5.016955" Properties=species:S:1:pos:R:3:spacegroup_kinds:I:1:momenta:R:3:forces:R:3 spacegroup="P 1" unit_cell=conventional occupancy="_JSON {\"0\": {\"Al\": 1}, \"1\": {\"Al\": 1}, \"2\": {\"N\": 1}, \"3\": {\"N\": 1}}" energy=-29.470205307006836 free_energy=-29.470205307006836 stress="0.0032030835282057524 -0.01780148781836033 0.011838383041322231 -0.01780148781836033 -0.04134921729564667 0.007359958719462156 0.011838383041322231 0.007359958719462156 -0.005160217173397541" pbc="T T T"
Al       1.62755626       0.89950080       2.54516750        0       1.04970771      -0.99981852      -0.80202926      -1.41064799       0.15933147      -0.91779017
Al      -0.00757057       1.81703571       4.95606285        1      -0.03757998       0.11959900      -0.16512761      -0.26242757      -0.84351671       1.41445720
N        1.52756234       0.85151203       4.42065485        2      -0.42752161       0.29023009      -0.07965763       0.31765884       0.98894727      -0.00115487
N       -0.06966665       1.84442110       1.93994533        3      -0.58460617       0.58998940       1.04681446       1.35541654      -0.30476201      -0.49551210
4
Lattice="3.128588 0.0 0.0 -1.5642939988088433 2.709436998432005 0.0 0.0 0.0 5.016955" Properties=species:S:1:pos:R:3:spacegroup_kinds:I:1:momenta:R:3:forces:R:3 spacegroup="P 1" unit_cell=conventional occupancy="_JSON {\"0\": {\"Al\": 1}, \"1\": {\"Al\": 1}, \"2\": {\"N\": 1}, \"3\": {\"N\": 1}}" energy=-29.452985763549805 free_energy=-29.452985763549805 stress="-0.01322521548718214 -0.02375001646578312 0.007911468856036663 -0.02375001646578312 -0.04793186113238335 -0.0073333303444087505 0.007911468856036663 -0.0073333303444087505 0.02863301709294319" pbc="T T T"
Al       1.63184037       0.85684029       2.46693548        0      -0.97589056      -0.55899621      -1.34838326      -1.39010072       1.11025846       1.17304015
Al      -0.02377745       1.82170281       4.98999599        1      -0.28018845       0.45883505       1.28013463      -0.08532529       0.08283453       0.34697163
N        1.52792700       0.92957748       4.44479004        2       0.11446481       0.97873257       0.08012573       0.22036117      -0.17398694       0.05599208
N       -0.04718868       1.83921501       2.00086010        3       1.14161412      -0.87857140      -0.01187707       1.25506473      -1.01910615      -1.57600403
4
Lattice="3.128588 0.0 0.0 -1.5642939988088433 2.709436998432005 0.0 0.0 0.0 5.016955" Properties=species:S:1:pos:R:3:spacegroup_kinds:I:1:momenta:R:3:forces:R:3 spacegroup="P 1" unit_cell=conventional occupancy="_JSON {\"0\": {\"Al\": 1}, \"1\": {\"Al\": 1}, \"2\": {\"N\": 1}, \"3\": {\"N\": 1}}" energy=-29.53631591796875 free_energy=-29.53631591796875 stress="-0.01985756866633892 0.013828971423208714 -0.005717341788113117 0.013828971423208714 -0.003163843648508191 -0.0016709590563550591 -0.005717341788113117 -0.0016709590563550591 -0.006260477472096682" pbc="T T T"
Al       1.56291507       0.86348346       2.43836898        0      -1.44558764       0.38889084       0.34074996       0.67285872       0.11609280       1.45909500
Al      -0.01834142       1.83613136       5.05736566        1       0.19731537      -0.00921550       1.04742075       0.06595267       0.15003556      -1.19267368
N        1.54726696       0.95741147       4.47045641        2      -0.01024049       0.05685053       0.14844034       0.09761378      -0.44420874      -0.65174770
N        0.05576966       1.77068665       1.90062729        3       1.25851272      -0.43652584      -1.53661103      -0.83642495       0.17808044       0.38532591
4
Lattice="3.128588 0.0 0.0 -1.5642939988088433 2.709436998432005 0.0 0.0 0.0 5.016955" Properties=species:S:1:pos:R:3:spacegroup_kinds:I:1:momenta:R:3:forces:R:3 spacegroup="P 1" unit_cell=conventional occupancy="_JSON {\"0\": {\"Al\": 1}, \"1\": {\"Al\": 1}, \"2\": {\"N\": 1}, \"3\": {\"N\": 1}}" energy=-29.5310001373291 free_energy=-29.5310001373291 stress="-0.018293796107172966 0.015707632526755333 -0.011607648804783821 0.015707632526755333 0.0031480344478040934 0.0046056355349719524 -0.011607648804783821 0.0046056355349719524 -0.01725883036851883" pbc="T T T"
Al       1.54701076       0.87273543       2.46070916        0       0.71855730      -0.11584337       0.49435319       1.07476771      -0.28505701       1.06925523
Al      -0.01761627       1.84389394       5.05391116        1       0.19346385       0.17720454      -0.69190060       0.23187639      -0.07941998      -1.16825104
N        1.56395349       0.94331123       4.45961399        2       0.32487447      -0.12409450      -0.51346211      -0.11547075      -0.20503184      -0.72920394
N        0.06831348       1.75176766       1.87546337        3      -1.23689566       0.06273332       0.71100947      -1.19117343       0.56950891       0.82819945
4
Lattice="3.128588 0.0 0.0 -1.5642939988088433 2.709436998432005 0.0 0.0 0.0 5.016955" Properties=species:S:1:pos:R:3:spacegroup_kinds:I:1:momenta:R:3:forces:R:3 spacegroup="P 1" unit_cell=conventional occupancy="_JSON {\"0\": {\"Al\": 1}, \"1\": {\"Al\": 1}, \"2\": {\"N\": 1}, \"3\": {\"N\": 1}}" energy=-29.613210678100586 free_energy=-29.613210678100586 stress="-0.008381756022572517 -0.004276682157069445 0.005492911674082279 -0.004276682157069445 -0.013937228359282017 0.0014803885715082288 0.005492911674082279 0.0014803885715082288 0.012475370429456234" pbc="T T T"
Al       1.57767908       0.87033377       2.48321563        0       0.42145849      -0.10086004       0.75449344      -0.50598651       0.14215443       0.64867646
Al       0.00878680       1.84488742       5.00616579        1       0.94842491       0.04829707      -0.67234632      -0.28190756      -0.37569728       0.05942819
N        1.54733735       0.91884310       4.41695258        2      -0.50233562      -0.06173872      -0.86681654       0.26756486       0.16352510       0.34766686
N       -0.02491942       1.77881438       1.96659665        3      -0.86754778       0.11430170       0.78466936       0.52032918       0.07001790      -1.05577147
4
Lattice="3.128588 0.0 0.0 -1.5642939988088433 2.709436998432005 0.0 0.0 0.0 5.016955" Properties=species:S:1:pos:R:3:spacegroup_kinds:I:1:momenta:R:3:forces:R:3 spacegroup="P 1" unit_cell=conventional occupancy="_JSON {\"0\": {\"Al\": 1}, \"1\": {\"Al\": 1}, \"2\": {\"N\": 1}, \"3\": {\"N\": 1}}" energy=-29.557842254638672 free_energy=-29.557842254638672 stress="-0.01636366918683052 -0.0029474315233528614 0.012903657741844654 -0.0029474315233528614 -0.006207398138940334 0.0015375073999166489 0.012903657741844654 0.0015375073999166489 -0.002714552218094468" pbc="T T T"
Al       1.59068813       0.88023428       2.52274583        0      -0.41625576       0.17887005       0.33160739      -0.90884387      -0.14030735      -0.36867902
Al       0.01872289       1.83477379       4.97781993        1       0.14973939      -0.20763086      -0.17578521      -0.72829717      -0.10046353       0.72652686
N        1.52039171       0.92489994       4.39464373        2       0.19754409       0.25939920       0.47781795       0.72476017      -0.09604967       0.71574116
N       -0.04216862       1.77342025       1.96745699        3       0.06897228      -0.23063837      -0.63364020       0.91238111       0.33682048      -1.07358885
4
Lattice="3.128588 0.0 0.0 -1.5642939988088433 2.709436998432005 0.0 0.0 0.0 5.016955" Properties=species:S:1:pos:R:3:spacegroup_kinds:I:1:momenta:R:3:forces:R:3 spacegroup="P 1" unit_cell=conventional occupancy="_JSON {\"0\": {\"Al\": 1}, \"1\": {\"Al\": 1}, \"2\": {\"N\": 1}, \"3\": {\"N\": 1}}" energy=-29.621112823486328 free_energy=-29.621112823486328 stress="-0.02150079607963562 0.005276479292660952 -0.003267433261498809 0.005276479292660952 0.010657626204192638 0.0019252403872087598 -0.003267433261498809 0.0019252403872087598 -0.0015899046557024121" pbc="T T T"
Al       1.54767651       0.89587759       2.50832854        0      -0.85809954       0.46896488      -1.00003005       0.39160377      -0.39029297      -0.15032041
Al       0.00665799       1.82067516       5.00342496        1      -0.72966920      -0.11082647       1.46536708      -0.00949659       0.22696650       0.34862804
N        1.57185931       0.94293299       4.45440722        2       0.62349826      -0.37686507       0.64593208      -0.01970039      -0.43335068      -0.83890152
N        0.01256031       1.75229423       1.88600537        3       0.96427045       0.01872670      -1.11126912      -0.36240685       0.59667712       0.64059407
4
Lattice="3.128588 0.0 0.0 -1.5642939988088433 2.709436998432005 0.0 0.0 0.0 5.016955" Properties=species:S:1:pos:R:3:spacegroup_kinds:I:1:momenta:R:3:forces:R:3 spacegroup="P 1" unit_cell=conventional occupancy="_JSON {\"0\": {\"Al\": 1}, \"1\": {\"Al\": 1}, \"2\": {\"N\": 1}, \"3\": {\"N\": 1}}" energy=-29.52085304260254 free_energy=-29.52085304260254 stress="-0.014047272503376007 0.011820931918919086 -0.01425557117909193 0.011820931918919086 -0.0056146737188100815 0.009361504577100277 -0.01425557117909193 0.009361504577100277 -0.01957111805677414" pbc="T T T"
Al       1.52999429       0.91403914       2.46474570        0       0.09545058      -0.23101183      -1.18071297       1.21875131      -0.63576895       0.99290133
Al      -0.00890655       1.82180733       5.05208965        1       0.31216966      -0.10747464       0.45537715       0.39472777      -0.38378707      -1.12710333
N        1.59437709       0.88605556       4.45928986        2      -0.04799064      -0.53350316      -0.20523320      -0.40810615       0.35579163      -0.79021657
N        0.05384447       1.77207219       1.87144999        3      -0.35962961       0.87198967       0.93056896      -1.20537305       0.66376442       0.92441857
4
Lattice="3.128588 0.0 0.0 -1.5642939988088433 2.709436998432005 0.0 0.0 0.0 5.016955" Properties=species:S:1:pos:R:3:spacegroup_kinds:I:1:momenta:R:3:forces:R:3 spacegroup="P 1" unit_cell=conventional occupancy="_JSON {\"0\": {\"Al\": 1}, \"1\": {\"Al\": 1}, \"2\": {\"N\": 1}, \"3\": {\"N\": 1}}" energy=-29.61878776550293 free_energy=-29.61878776550293 stress="0.010117663070559502 -0.001821966958232224 -0.0018730458104982972 -0.001821966958232224 -0.02478305622935295 0.00459114508703351 -0.0018730458104982972 0.00459114508703351 2.646150278451387e-05" pbc="T T T"
Al       1.53818032       0.90928017       2.47247633        0       0.23228509      -0.27447287       1.41733323       0.21200842       0.18702121       0.85530651
Al       0.01802692       1.81430744       5.03506514        1       0.60360854      -0.42930260      -1.11140707       0.03760083      -0.69444185      -0.55142492
N        1.59518009       0.85128049       4.42414643        2       0.09084591       0.02420682      -0.77345570      -0.19470179       0.84070599       0.01228188
N       -0.01452981       1.83034434       1.92467355        3      -0.92673954       0.67956865       0.46752950      -0.05490743      -0.33328527      -0.31616372
4
Lattice="3.128588 0.0 0.0 -1.5642939988088433 2.709436998432005 0.0 0.0 0.0 5.016955" Properties=species:S:1:pos:R:3:spacegroup_kinds:I:1:momenta:R:3:forces:R:3 spacegroup="P 1" unit_cell=conventional occupancy="_JSON {\"0\": {\"Al\": 1}, \"1\": {\"Al\": 1}, \"2\": {\"N\": 1}, \"3\": {\"N\": 1}}" energy=-29.623743057250977 free_energy=-29.623743057250977 stress="0.0043006641790270805 -0.008672436699271202 0.002881882479414344 -0.008672436699271202 -0.00694390619173646 -0.00443450128659606 0.002881882479414344 -0.00443450128659606 -0.01483919844031334" pbc="T T T"
Al       1.54321202       0.89379622       2.53645984        0      -0.00705430      -0.41529126       0.79444914      -0.25249776       0.39303061      -0.87834585
Al       0.03580900       1.79893953       4.98957807        1       0.09337906      -0.29525136      -0.61191916      -0.16601497       0.14057750       0.62745184
N        1.59619753       0.90645094       4.40111842        2      -0.02189792       1.09350648       0.27120830      -0.08899370      -0.09593373       0.34911186
N       -0.05911257       1.83464209       1.91219258        3      -0.06442687      -0.38296389      -0.45373831       0.50750631      -0.43767446      -0.09821804
