13
Lattice="7.26870274 0.0 0.0 3.634351370000001 6.294881225397555 0.0 3.634351370000001 2.0982937417991856 5.934870934989993" Properties=species:S:1:pos:R:3:spacegroup_kinds:I:1:forces:R:3 spacegroup="P 1" unit_cell=conventional occupancy="_JSON {\"0\": {\"Li\": 1}, \"1\": {\"Li\": 1}, \"2\": {\"Li\": 1}, \"3\": {\"Li\": 1}, \"4\": {\"Li\": 1}, \"5\": {\"Li\": 1}, \"6\": {\"P\": 1}, \"7\": {\"S\": 1}, \"8\": {\"S\": 1}, \"9\": {\"S\": 1}, \"10\": {\"S\": 1}, \"11\": {\"S\": 1}, \"12\": {\"Cl\": 1}}" energy=-53.3634147644043 free_energy=-53.3634147644043 stress="-0.0007941948133520782 -2.3865166554060124e-07 -1.5030180122721504e-07 -2.3865166554060124e-07 -0.0007939491770230234 -1.1704969438142143e-07 -1.5030180122721504e-07 -1.1704969438142143e-07 -0.0007939179777167737" pbc="T T T"
Li       9.25387995       7.24703237       3.10460814        0       0.00422600      -0.00243455       0.00344805
Li      12.55222827       5.34273008       5.79769826        1      -0.00421172       0.00243357      -0.00344174
Li       9.25387995       5.34273008       5.79769826        2       0.00422516       0.00243866      -0.00344694
Li      12.55222827       7.24703237       3.10460814        3      -0.00421235      -0.00243124       0.00344141
Li      10.90305411       4.39057894       3.10460814        4       0.00000238       0.00487731       0.00344896
Li      10.90305411       8.19918351       5.79769826        5       0.00000212      -0.00486359      -0.00344145
P        7.26870274       4.19658748       2.96743547        6       0.00008565       0.00004618       0.00003605
S        7.26870637       6.13578650       2.28182731        7      -0.00001809      -0.01090975       0.00384720
S        8.94810016       3.22699113       2.28182731        8      -0.00945796       0.00544012       0.00384744
S        5.58931258       3.22699113       2.28182731        9       0.00937814       0.00541289       0.00382998
S        7.26870637       4.19658958       5.02426588       10      -0.00001870      -0.00001005      -0.01157001
S       10.90305411       6.29488123       4.45115320       11      -0.00000148      -0.00000059      -0.00000016
Cl       0.00000000       0.00000000       0.00000000       12       0.00000084       0.00000104       0.00000121
