4
Lattice="3.128588 0.0 0.0 -1.5642939988088433 2.709436998432005 0.0 0.0 0.0 5.016955" Properties=species:S:1:pos:R:3:spacegroup_kinds:I:1:momenta:R:3:forces:R:3 spacegroup="P 1" unit_cell=conventional occupancy="_JSON {\"0\": {\"Al\": 1}, \"1\": {\"Al\": 1}, \"2\": {\"N\": 1}, \"3\": {\"N\": 1}}" energy=-29.623743057250977 free_energy=-29.623743057250977 stress="0.004300602246075869 -0.008672685362398624 0.0028817893471568823 -0.008672685362398624 -0.00694380234926939 -0.004434509668499231 0.0028817893471568823 -0.004434509668499231 -0.014839150942862034" pbc="T T T"
Al       1.54321203       0.89379621       2.53645987        0      -0.00705473      -0.41529108       0.79444796      -0.25249970       0.39303130      -0.87834454
Al       0.03580900       1.79893954       4.98957808        1       0.09337909      -0.29525143      -0.61191789      -0.16600884       0.14057888       0.62745160
N        1.59619759       0.90645093       4.40111845        2      -0.02189801       1.09350661       0.27120834      -0.08899976      -0.09593511       0.34911114
N       -0.05911259       1.83464210       1.91219260        3      -0.06442635      -0.38296406      -0.45373837       0.50750828      -0.43767506      -0.09821833
