4
Lattice="3.128588 0.0 0.0 -1.5642939988088433 2.709436998432005 0.0 0.0 0.0 5.016955" Properties=species:S:1:pos:R:3:spacegroup_kinds:I:1:momenta:R:3:forces:R:3 spacegroup="P 1" unit_cell=conventional occupancy="_JSON {\"0\": {\"Al\": 1}, \"1\": {\"Al\": 1}, \"2\": {\"N\": 1}, \"3\": {\"N\": 1}}" energy=-29.673717498779297 free_energy=-29.673717498779297 stress="-0.0022254050709307194 -1.3815215424983762e-06 -7.603369489572742e-09 -1.3815215424983762e-06 -0.002227549906820059 -2.8164503618199888e-08 -7.603369489572742e-09 -2.8164503618199888e-08 -0.005453735124319792" pbc="T T T"
Al       1.56429556       0.90314476       2.50490041        0       0.68448204       0.53670047       0.91071479      -0.00003542       0.00002127       0.00553202
Al      -0.00000156       1.80629224       5.01337791        1       0.31075784       0.39520501      -1.87833745       0.00003539      -0.00002076       0.00552434
N        1.56429556       0.90314476       4.41849749        2      -0.23293981      -0.79739853      -0.40745139      -0.00003738       0.00002137      -0.00553094
N       -0.00000156       1.80629224       1.91001999        3      -0.76230006      -0.13450696       1.37507406       0.00003740      -0.00002170      -0.00552516
4
Lattice="3.128588 0.0 0.0 -1.5642939988088433 2.709436998432005 0.0 0.0 0.0 5.016955" Properties=species:S:1:pos:R:3:spacegroup_kinds:I:1:momenta:R:3:forces:R:3 spacegroup="P 1" unit_cell=conventional occupancy="_JSON {\"0\": {\"Al\": 1}, \"1\": {\"Al\": 1}, \"2\": {\"N\": 1}, \"3\": {\"N\": 1}}" energy=-29.43359375 free_energy=-29.43359375 stress="-0.01377351488918066 -0.016446497291326523 0.012948812916874886 -0.016446497291326523 -0.023968828842043877 0.009969710372388363 0.012948812916874886 0.009969710372388363 -0.012059425935149193" pbc="T T T"
Al       1.60246141       0.92231284       2.54150848        0       0.57498215      -0.13492000       1.02882460      -1.31301355      -0.49033391      -0.87831366
Al       0.00328789       1.81111139       4.94718774        1      -0.44725806       0.00118052      -1.07867307      -0.30154195      -0.59423256       1.18011892
N        1.53678587       0.85870779       4.38099594        2       0.14052035      -0.46066731       0.20203874       0.28490779       0.67984444       1.25553668
N       -0.05228245       1.80432671       2.00436660        3      -0.26824446       0.59440680      -0.15219027       1.32964778       0.40472195      -1.55734181
4
Lattice="3.128588 0.0 0.0 -1.5642939988088433 2.709436998432005 0.0 0.0 0.0 5.016955" Properties=species:S:1:pos:R:3:spacegroup_kinds:I:1:momenta:R:3:forces:R:3 spacegroup="P 1" unit_cell=conventional occupancy="_JSON {\"0\": {\"Al\": 1}, \"1\": {\"Al\": 1}, \"2\": {\"N\": 1}, \"3\": {\"N\": 1}}" energy=-29.5672550201416 free_energy=-29.5672550201416 stress="0.012915842235088348 0.0017025716369971633 0.003579382784664631 0.0017025716369971633 -0.025856997817754745 -0.00536911329254508 0.003579382784664631 -0.00536911329254508 -0.01143528800457716" pbc="T T T"
Al       1.59598186       0.90138485       2.55101265        0      -0.85003983      -0.64755163      -0.41676272      -0.33522737       0.74370319      -1.26921308
Al      -0.01311799       1.79082858       4.96769658        1      -0.24557027      -0.74327781       1.65595784      -0.18280295      -0.17026864       1.21499681
N        1.52960408       0.86779351       4.41996341        2       0.16413071       0.60763577       0.63654561       0.31887710       0.39321488      -0.09056849
N       -0.00060095       1.87475190       1.90756520        3       0.93147937       0.78319367      -1.87574075       0.19915305      -0.96664953       0.14478424
4
Lattice="3.128588 0.0 0.0 -1.5642939988088433 2.709436998432005 0.0 0.0 0.0 5.016955" Properties=species:S:1:pos:R:3:spacegroup_kinds:I:1:momenta:R:3:forces:R:3 spacegroup="P 1" unit_cell=conventional occupancy="_JSON {\"0\": {\"Al\": 1}, \"1\": {\"Al\": 1}, \"2\": {\"N\": 1}, \"3\": {\"N\": 1}}" energy=-29.406274795532227 free_energy=-29.406274795532227 stress="0.010688591748476028 0.01649816706776619 -0.00816398486495018 0.01649816706776619 -0.00942328292876482 -0.015553961507976055 -0.00816398486495018 -0.015553961507976055 -0.061254240572452545" pbc="T T T"
Al       1.53423929       0.87298461       2.51007453        0      -1.60925376       0.09619220      -1.03262299       0.74608731       1.00298524       0.03482392
Al      -0.01349003       1.78470222       5.05709166        1       0.21561221      -0.04339788       1.72443282       0.02271231       0.40732935      -1.66437006
N        1.55208975       0.92225132       4.42203506        2       0.38659414       0.63935814      -0.93002944       0.04495795      -0.39009714      -0.56986058
N        0.09667396       1.88681816       1.81230436        3       1.00704740      -0.69215247       0.23821963      -0.81375766      -1.02021730       2.19940639
4
Lattice="3.128588 0.0 0.0 -1.5642939988088433 2.709436998432005 0.0 0.0 0.0 5.016955" Properties=species:S:1:pos:R:3:spacegroup_kinds:I:1:momenta:R:3:forces:R:3 spacegroup="P 1" unit_cell=conventional occupancy="_JSON {\"0\": {\"Al\": 1}, \"1\": {\"Al\": 1}, \"2\": {\"N\": 1}, \"3\": {\"N\": 1}}" energy=-29.201902389526367 free_energy=-29.201902389526367 stress="-0.02644110657274723 0.0381556898355484 -0.0313824899494648 0.0381556898355484 -0.004877347033470869 0.0015437653055414557 -0.0313824899494648 0.0015437653055414557 -0.05181988701224327" pbc="T T T"
Al       1.49382403       0.87740193       2.48150490        0      -0.08661630      -0.02748817       0.25595547       2.48428202      -0.46187007       1.22611690
Al      -0.02076737       1.79337852       5.08843295        1       0.00716732       0.60209054      -1.27068301       0.64723265       0.57433391      -2.36003947
N        1.60157224       0.96971684       4.33361319        2       0.49437274       0.53651035      -0.17473360      -0.53882539      -0.70145345       1.74608850
N        0.13924905       1.81421451       1.89535166        3      -0.41492371      -1.11111275       1.18946121      -2.59268951       0.58898950      -0.61216587
4
Lattice="3.128588 0.0 0.0 -1.5642939988088433 2.709436998432005 0.0 0.0 0.0 5.016955" Properties=species:S:1:pos:R:3:spacegroup_kinds:I:1:momenta:R:3:forces:R:3 spacegroup="P 1" unit_cell=conventional occupancy="_JSON {\"0\": {\"Al\": 1}, \"1\": {\"Al\": 1}, \"2\": {\"N\": 1}, \"3\": {\"N\": 1}}" energy=-29.574626922607422 free_energy=-29.574626922607422 stress="-0.023618007078766823 -0.014321249909698963 -0.01112790871411562 -0.014321249909698963 0.015030095353722572 -0.0028546047396957874 -0.01112790871411562 -0.0028546047396957874 -0.014440475963056087" pbc="T T T"
Al       1.53421964       0.88369269       2.53780582        0       1.55944058       0.36820865       1.55970996       0.29264230      -0.24000457      -0.91367865
Al      -0.00048006       1.82107764       4.98837342        1       1.01688609       0.86374317      -2.47525442       0.94369447       0.52251643       0.78486568
N        1.63583966       0.96584649       4.40663186        2      -0.31021946      -0.52489318       1.27117415      -1.15103686      -0.78907228       0.05687778
N       -0.01177525       1.75252281       1.90648730        3      -2.26610712      -0.70705866      -0.35562958      -0.08530003       0.50656044       0.07193495
4
Lattice="3.128588 0.0 0.0 -1.5642939988088433 2.709436998432005 0.0 0.0 0.0 5.016955" Properties=species:S:1:pos:R:3:spacegroup_kinds:I:1:momenta:R:3:forces:R:3 spacegroup="P 1" unit_cell=conventional occupancy="_JSON {\"0\": {\"Al\": 1}, \"1\": {\"Al\": 1}, \"2\": {\"N\": 1}, \"3\": {\"N\": 1}}" energy=-29.3720703125 free_energy=-29.3720703125 stress="-0.005629668012261391 -0.01871936209499836 0.01584952138364315 -0.01871936209499836 -0.03227291628718376 0.01721222698688507 0.01584952138364315 0.01721222698688507 -0.007298205513507128" pbc="T T T"
Al       1.57072836       0.88046441       2.56331974        0      -0.00039260      -0.37629514      -0.57844069      -1.34386563      -0.44065833      -1.50707519
Al       0.05055073       1.86456080       4.94968571        1       0.52727010       0.77034111       1.04960198      -0.49128905      -1.36433721       1.82584858
N        1.58204796       0.88176660       4.44992393        2      -0.27832246      -1.02263339      -0.55459289       0.15003663       1.16376126      -0.85894918
N       -0.12661087       1.75915456       1.88869866        3      -0.24855493       0.62858739       0.08343165       1.68511844       0.64123404       0.54017586
4
Lattice="3.128588 0.0 0.0 -1.5642939988088433 2.709436998432005 0.0 0.0 0.0 5.016955" Properties=species:S:1:pos:R:3:spacegroup_kinds:I:1:momenta:R:3:forces:R:3 spacegroup="P 1" unit_cell=conventional occupancy="_JSON {\"0\": {\"Al\": 1}, \"1\": {\"Al\": 1}, \"2\": {\"N\": 1}, \"3\": {\"N\": 1}}" energy=-29.596923828125 free_energy=-29.596923828125 stress="0.015976309776306152 -0.004506024066358805 0.006018648389726877 -0.004506024066358805 -0.025499504059553146 -0.004597141873091459 0.006018648389726877 -0.004597141873091459 -0.01001389417797327" pbc="T T T"
Al       1.53284808       0.86390066       2.51395076        0      -1.59464557      -0.16469630      -1.74991278      -0.27820659       0.89915991      -0.15420474
Al       0.06317843       1.83227864       5.00948380        1       0.38439984      -1.80666628       1.59449861      -0.58708316      -0.41271672       0.16725069
N        1.58572476       0.89623788       4.41422578        2       0.14193223       1.12964951      -0.09119149       0.25704020       0.38076639       0.00228171
N       -0.08152106       1.83862421       1.90381446        3       1.06831358       0.84171306       0.24660571       0.60824949      -0.86720943      -0.01532769
4
Lattice="3.128588 0.0 0.0 -1.5642939988088433 2.709436998432005 0.0 0.0 0.0 5.016955" Properties=species:S:1:pos:R:3:spacegroup_kinds:I:1:momenta:R:3:forces:R:3 spacegroup="P 1" unit_cell=conventional occupancy="_JSON {\"0\": {\"Al\": 1}, \"1\": {\"Al\": 1}, \"2\": {\"N\": 1}, \"3\": {\"N\": 1}}" energy=-29.46255111694336 free_energy=-29.46255111694336 stress="-0.005697233136743307 0.010849551297724247 -0.003906621597707272 0.010849551297724247 -0.019134042784571648 -0.012703207321465015 -0.003906621597707272 -0.012703207321465015 -0.011871409602463245" pbc="T T T"
Al       1.48347329       0.88264395       2.44527933        0      -0.30454549       1.01149534      -0.60004470       0.88393056       0.95768404       1.70777059
Al       0.06164410       1.77681258       5.07306068        1      -0.86715259      -0.75617413       0.43048882      -0.30080599       0.71655309      -1.72279978
N        1.61717713       0.94947186       4.40498427        2       0.38645880       0.04830088       0.18623279      -0.07233968      -0.67485964       0.48910767
N       -0.01486930       1.85626148       1.92266703        3       0.78523934      -0.30362208      -0.01667688      -0.51078498      -0.99937731      -0.47407821
4
Lattice="3.128588 0.0 0.0 -1.5642939988088433 2.709436998432005 0.0 0.0 0.0 5.016955" Properties=species:S:1:pos:R:3:spacegroup_kinds:I:1:momenta:R:3:forces:R:3 spacegroup="P 1" unit_cell=conventional occupancy="_JSON {\"0\": {\"Al\": 1}, \"1\": {\"Al\": 1}, \"2\": {\"N\": 1}, \"3\": {\"N\": 1}}" energy=-29.518747329711914 free_energy=-29.518747329711914 stress="-0.02337060682475567 0.006539954803884029 -0.016098294407129288 0.006539954803884029 0.00669752387329936 -0.0004823344643227756 -0.016098294407129288 -0.0004823344643227756 -0.022161385044455528" pbc="T T T"
Al       1.50607637       0.94974320       2.46463700        0       1.15921350       0.62635238       1.50689856       1.24247527      -0.60704696       1.15697384
Al       0.01335471       1.75088038       5.06242872        1      -0.91111994       0.14825268      -0.88962518       0.51474714       0.69610524      -1.43089032
N        1.62637961       0.90489621       4.42127856        2      -0.14223552      -0.64065081       0.21498358      -0.71771860      -0.51824117      -0.07984820
N        0.02538011       1.82158366       1.88963025        3      -0.10585798      -0.13395421      -0.83225693      -1.03950405       0.42918271       0.35376498
4
Lattice="3.128588 0.0 0.0 -1.5642939988088433 2.709436998432005 0.0 0.0 0.0 5.016955" Properties=species:S:1:pos:R:3:spacegroup_kinds:I:1:momenta:R:3:forces:R:3 spacegroup="P 1" unit_cell=conventional occupancy="_JSON {\"0\": {\"Al\": 1}, \"1\": {\"Al\": 1}, \"2\": {\"N\": 1}, \"3\": {\"N\": 1}}" energy=-29.60500717163086 free_energy=-29.60500717163086 stress="0.0015957701252773404 -0.006785869598388672 -0.0030954997055232525 -0.006785869598388672 0.0017806327668949962 0.0017243302427232265 -0.0030954997055232525 0.0017243302427232265 -0.023113666102290154" pbc="T T T"
Al       1.56693925       0.93861032       2.54470909        0       1.44875353      -0.98943813       1.48437290      -0.01659338      -0.29131621      -1.20300639
Al      -0.01304568       1.78057345       4.99752455        1       0.01689819       1.11024971      -1.70729912       0.38438886       0.02358299       0.50760305
N        1.58384204       0.87104969       4.42155570        2      -0.67927491      -0.02704965      -0.19037159      -0.39237055       0.15177847      -0.39792347
N        0.00122212       1.81989280       1.85992052        3      -0.78637679      -0.09376192       0.41329781       0.02457513       0.11595465       1.09332657
4
Lattice="3.128588 0.0 0.0 -1.5642939988088433 2.709436998432005 0.0 0.0 0.0 5.016955" Properties=species:S:1:pos:R:3:spacegroup_kinds:I:1:momenta:R:3:forces:R:3 spacegroup="P 1" unit_cell=conventional occupancy="_JSON {\"0\": {\"Al\": 1}, \"1\": {\"Al\": 1}, \"2\": {\"N\": 1}, \"3\": {\"N\": 1}}" energy=-29.47020721435547 free_energy=-29.47020721435547 stress="0.0032029266003519297 -0.017801428213715553 0.011838464066386223 -0.017801428213715553 -0.04134908318519592 0.0073599317111074924 0.011838464066386223 0.0073599317111074924 -0.005160256288945675" pbc="T T T"
Al       1.62755629       0.89950080       2.54516749        0       1.04970760      -0.99981887      -0.80202898      -1.41065288       0.15933138      -0.91778994
Al      -0.00757055       1.81703570       4.95606290        1      -0.03757975       0.11959838      -0.16512819      -0.26242876      -0.84351814       1.41445744
N        1.52756231       0.85151201       4.42065484        2      -0.42752205       0.29023063      -0.07965709       0.31766242       0.98894906      -0.00115339
N       -0.06966667       1.84442113       1.93994535        3      -0.58460577       0.58998985       1.04681429       1.35541940      -0.30476210      -0.49551380
4
Lattice="3.128588 0.0 0.0 -1.5642939988088433 2.709436998432005 0.0 0.0 0.0 5.016955" Properties=species:S:1:pos:R:3:spacegroup_kinds:I:1:momenta:R:3:forces:R:3 spacegroup="P 1" unit_cell=conventional occupancy="_JSON {\"0\": {\"Al\": 1}, \"1\": {\"Al\": 1}, \"2\": {\"N\": 1}, \"3\": {\"N\": 1}}" energy=-29.452987670898438 free_energy=-29.452987670898438 stress="-0.013225066475570202 -0.023750094696879387 0.007911449298262596 -0.023750094696879387 -0.04793187603354454 -0.007333329413086176 0.007911449298262596 -0.007333329413086176 0.028633050620555878" pbc="T T T"
Al       1.63184040       0.85684030       2.46693549        0      -0.97589070      -0.55899583      -1.34838265      -1.39010167       1.11025858       1.17304134
Al      -0.02377744       1.82170279       4.98999600        1      -0.28018874       0.45883517       1.28013425      -0.08532476       0.08283430       0.34697163
N        1.52792699       0.92957748       4.44479007        2       0.11446520       0.97873255       0.08012576       0.22036102      -0.17398663       0.05599158
N       -0.04718869       1.83921503       2.00086010        3       1.14161414      -0.87857192      -0.01187733       1.25506568      -1.01910639      -1.57600439
4
Lattice="3.128588 0.0 0.0 -1.5642939988088433 2.709436998432005 0.0 0.0 0.0 5.016955" Properties=species:S:1:pos:R:3:spacegroup_kinds:I:1:momenta:R:3:forces:R:3 spacegroup="P 1" unit_cell=conventional occupancy="_JSON {\"0\": {\"Al\": 1}, \"1\": {\"Al\": 1}, \"2\": {\"N\": 1}, \"3\": {\"N\": 1}}" energy=-29.536314010620117 free_energy=-29.536314010620117 stress="-0.019857844337821007 0.013828963041305542 -0.005717437714338303 0.013828963041305542 -0.0031643444672226906 -0.0016708595212548971 -0.005717437714338303 -0.0016708595212548971 -0.0062602306716144085" pbc="T T T"
Al       1.56291507       0.86348348       2.43836901        0      -1.44558852       0.38889119       0.34075039       0.67285967       0.11609267       1.45909357
Al      -0.01834143       1.83613134       5.05736565        1       0.19731494      -0.00921560       1.04742058       0.06595361       0.15003553      -1.19267523
N        1.54726700       0.95741148       4.47045643        2      -0.01024002       0.05685064       0.14844000       0.09761275      -0.44420600      -0.65174317
N        0.05576969       1.77068664       1.90062728        3       1.25851356      -0.43652624      -1.53661098      -0.83642602       0.17807814       0.38532525
4
Lattice="3.128588 0.0 0.0 -1.5642939988088433 2.709436998432005 0.0 0.0 0.0 5.016955" Properties=species:S:1:pos:R:3:spacegroup_kinds:I:1:momenta:R:3:forces:R:3 spacegroup="P 1" unit_cell=conventional occupancy="_JSON {\"0\": {\"Al\": 1}, \"1\": {\"Al\": 1}, \"2\": {\"N\": 1}, \"3\": {\"N\": 1}}" energy=-29.5310001373291 free_energy=-29.5310001373291 stress="-0.01829387992620468 0.015707584097981453 -0.011607709340751171 0.015707584097981453 0.003148037241771817 0.004605640657246113 -0.011607709340751171 0.004605640657246113 -0.017258908599615097" pbc="T T T"
Al       1.54701075       0.87273546       2.46070919        0       0.71855754      -0.11584369       0.49435291       1.07476699      -0.28505820       1.06925511
Al      -0.01761628       1.84389392       5.05391117        1       0.19346398       0.17720456      -0.69190034       0.23187567      -0.07941946      -1.16825104
N        1.56395353       0.94331122       4.45961399        2       0.32487444      -0.12409451      -0.51346225      -0.11546992      -0.20503223      -0.72920299
N        0.06831353       1.75176764       1.87546339        3      -1.23689601       0.06273362       0.71100971      -1.19117272       0.56950986       0.82819903
4
Lattice="3.128588 0.0 0.0 -1.5642939988088433 2.709436998432005 0.0 0.0 0.0 5.016955" Properties=species:S:1:pos:R:3:spacegroup_kinds:I:1:momenta:R:3:forces:R:3 spacegroup="P 1" unit_cell=conventional occupancy="_JSON {\"0\": {\"Al\": 1}, \"1\": {\"Al\": 1}, \"2\": {\"N\": 1}, \"3\": {\"N\": 1}}" energy=-29.61321449279785 free_energy=-29.61321449279785 stress="-0.008381804451346397 -0.004276667721569538 0.0054929000325500965 -0.004276667721569538 -0.013937111012637615 0.001480401260778308 0.0054929000325500965 0.001480401260778308 0.012475376017391682" pbc="T T T"
Al       1.57767910       0.87033377       2.48321563        0       0.42145926      -0.10086054       0.75449297      -0.50598854       0.14215289       0.64867711
Al       0.00878682       1.84488740       5.00616581        1       0.94842548       0.04829702      -0.67234617      -0.28190938      -0.37569541       0.05942774
N        1.54733735       0.91884310       4.41695260        2      -0.50233621      -0.06173855      -0.86681606       0.26756650       0.16352309       0.34766728
N       -0.02491942       1.77881442       1.96659666        3      -0.86754857       0.11430205       0.78466932       0.52033144       0.07001933      -1.05577207
4
Lattice="3.128588 0.0 0.0 -1.5642939988088433 2.709436998432005 0.0 0.0 0.0 5.016955" Properties=species:S:1:pos:R:3:spacegroup_kinds:I:1:momenta:R:3:forces:R:3 spacegroup="P 1" unit_cell=conventional occupancy="_JSON {\"0\": {\"Al\": 1}, \"1\": {\"Al\": 1}, \"2\": {\"N\": 1}, \"3\": {\"N\": 1}}" energy=-29.557838439941406 free_energy=-29.557838439941406 stress="-0.01636379398405552 -0.0029474354814738035 0.012903643772006035 -0.0029474354814738035 -0.006207474507391453 0.0015374848153442144 0.012903643772006035 0.0015374848153442144 -0.0027146136853843927" pbc="T T T"
Al       1.59068816       0.88023427       2.52274583        0      -0.41625628       0.17887018       0.33160842      -0.90884280      -0.14030716      -0.36867952
Al       0.01872292       1.83477379       4.97781997        1       0.14973946      -0.20763015      -0.17578538      -0.72829819      -0.10046335       0.72652656
N        1.52039168       0.92489993       4.39464377        2       0.19754410       0.25939886       0.47781754       0.72476017      -0.09604970       0.71574235
N       -0.04216865       1.77342027       1.96745698        3       0.06897271      -0.23063890      -0.63364053       0.91238099       0.33682016      -1.07358909
4
Lattice="3.128588 0.0 0.0 -1.5642939988088433 2.709436998432005 0.0 0.0 0.0 5.016955" Properties=species:S:1:pos:R:3:spacegroup_kinds:I:1:momenta:R:3:forces:R:3 spacegroup="P 1" unit_cell=conventional occupancy="_JSON {\"0\": {\"Al\": 1}, \"1\": {\"Al\": 1}, \"2\": {\"N\": 1}, \"3\": {\"N\": 1}}" energy=-29.621110916137695 free_energy=-29.621110916137695 stress="-0.021500753238797188 0.005276337265968323 -0.003267423016950488 0.005276337265968323 0.010657810606062412 0.0019249229226261377 -0.003267423016950488 0.0019249229226261377 -0.0015898429555818439" pbc="T T T"
Al       1.54767650       0.89587759       2.50832859        0      -0.85809996       0.46896532      -1.00002957       0.39160246      -0.39029044      -0.15032662
Al       0.00665802       1.82067517       5.00342498        1      -0.72966928      -0.11082681       1.46536671      -0.00949511       0.22696790       0.34862983
N        1.57185931       0.94293298       4.45440720        2       0.62349854      -0.37686464       0.64593169      -0.01970133      -0.43335113      -0.83890045
N        0.01256033       1.75229420       1.88600535        3       0.96427067       0.01872616      -1.11126885      -0.36240608       0.59667391       0.64059758
4
Lattice="3.128588 0.0 0.0 -1.5642939988088433 2.709436998432005 0.0 0.0 0.0 5.016955" Properties=species:S:1:pos:R:3:spacegroup_kinds:I:1:momenta:R:3:forces:R:3 spacegroup="P 1" unit_cell=conventional occupancy="_JSON {\"0\": {\"Al\": 1}, \"1\": {\"Al\": 1}, \"2\": {\"N\": 1}, \"3\": {\"N\": 1}}" energy=-29.520854949951172 free_energy=-29.520854949951172 stress="-0.014047419652342796 0.011820826679468155 -0.014255587942898273 0.011820826679468155 -0.005614867899566889 0.009361546486616135 -0.014255587942898273 0.009361546486616135 -0.019571062177419662" pbc="T T T"
Al       1.52999429       0.91403914       2.46474576        0       0.09545098      -0.23101219      -1.18071286       1.21875501      -0.63577187       0.99290049
Al      -0.00890653       1.82180732       5.05208964        1       0.31216957      -0.10747505       0.45537668       0.39472574      -0.38378334      -1.12710392
N        1.59437710       0.88605559       4.45928985        2      -0.04799039      -0.53350282      -0.20523306      -0.40810364       0.35578892      -0.79021436
N        0.05384449       1.77207216       1.87145002        3      -0.35963015       0.87199007       0.93056928      -1.20537710       0.66376650       0.92441773
4
Lattice="3.128588 0.0 0.0 -1.5642939988088433 2.709436998432005 0.0 0.0 0.0 5.016955" Properties=species:S:1:pos:R:3:spacegroup_kinds:I:1:momenta:R:3:forces:R:3 spacegroup="P 1" unit_cell=conventional occupancy="_JSON {\"0\": {\"Al\": 1}, \"1\": {\"Al\": 1}, \"2\": {\"N\": 1}, \"3\": {\"N\": 1}}" energy=-29.61878776550293 free_energy=-29.61878776550293 stress="0.010117917321622372 -0.001822028774768114 -0.0018730885349214077 -0.001822028774768114 -0.024783052504062653 0.004591112025082111 -0.0018730885349214077 0.004591112025082111 2.6413848900119774e-05" pbc="T T T"
Al       1.53818033       0.90928016       2.47247640        0       0.23228521      -0.27447317       1.41733313       0.21200873       0.18702373       0.85529840
Al       0.01802693       1.81430744       5.03506512        1       0.60360817      -0.42930216      -1.11140724       0.03760169      -0.69444370      -0.55142361
N        1.59518013       0.85128049       4.42414644        2       0.09084637       0.02420622      -0.77345508      -0.19470210       0.84070706       0.01228391
N       -0.01452984       1.83034435       1.92467357        3      -0.92673972       0.67956914       0.46752927      -0.05490839      -0.33328712      -0.31615892
4
Lattice="3.128588 0.0 0.0 -1.5642939988088433 2.709436998432005 0.0 0.0 0.0 5.016955" Properties=species:S:1:pos:R:3:spacegroup_kinds:I:1:momenta:R:3:forces:R:3 spacegroup="P 1" unit_cell=conventional occupancy="_JSON {\"0\": {\"Al\": 1}, \"1\": {\"Al\": 1}, \"2\": {\"N\": 1}, \"3\": {\"N\": 1}}" energy=-29.623743057250977 free_energy=-29.623743057250977 stress="0.004300602246075869 -0.008672685362398624 0.0028817893471568823 -0.008672685362398624 -0.00694380234926939 -0.004434509668499231 0.0028817893471568823 -0.004434509668499231 -0.014839150942862034" pbc="T T T"
Al       1.54321203       0.89379621       2.53645987        0      -0.00705473      -0.41529108       0.79444796      -0.25249970       0.39303130      -0.87834454
Al       0.03580900       1.79893954       4.98957808        1       0.09337909      -0.29525143      -0.61191789      -0.16600884       0.14057888       0.62745160
N        1.59619759       0.90645093       4.40111845        2      -0.02189801       1.09350661       0.27120834      -0.08899976      -0.09593511       0.34911114
N       -0.05911259       1.83464210       1.91219260        3      -0.06442635      -0.38296406      -0.45373837       0.50750828      -0.43767506      -0.09821833
