4
Lattice="3.128588 0.0 0.0 -1.5642939988088433 2.709436998432005 0.0 0.0 0.0 5.016955" Properties=species:S:1:pos:R:3:spacegroup_kinds:I:1:forces:R:3 spacegroup="P 1" unit_cell=conventional occupancy="_JSON {\"0\": {\"Al\": 1}, \"1\": {\"Al\": 1}, \"2\": {\"N\": 1}, \"3\": {\"N\": 1}}" energy=-29.673717498779297 free_energy=-29.673717498779297 stress="-0.0022254050709307194 -1.3815215424983762e-06 -7.603369489572742e-09 -1.3815215424983762e-06 -0.002227549906820059 -2.8164503618199888e-08 -7.603369489572742e-09 -2.8164503618199888e-08 -0.005453735124319792" pbc="T T T"
Al       1.56429556       0.90314476       2.50490041        0      -0.00003542       0.00002127       0.00553202
Al      -0.00000156       1.80629224       5.01337791        1       0.00003539      -0.00002076       0.00552434
N        1.56429556       0.90314476       4.41849749        2      -0.00003738       0.00002137      -0.00553094
N       -0.00000156       1.80629224       1.91001999        3       0.00003740      -0.00002170      -0.00552516
