4
Lattice="3.128588 0.0 0.0 -1.5642939988088433 2.709436998432005 0.0 0.0 0.0 5.016955" Properties=species:S:1:pos:R:3:spacegroup_kinds:I:1:momenta:R:3:forces:R:3 spacegroup="P 1" unit_cell=conventional occupancy="_JSON {\"0\": {\"Al\": 1}, \"1\": {\"Al\": 1}, \"2\": {\"N\": 1}, \"3\": {\"N\": 1}}" energy=-29.62373924255371 free_energy=-29.62373924255371 stress="0.004300088156014681 -0.008672727271914482 0.002882040338590741 -0.008672727271914482 -0.00694380234926939 -0.004434542264789343 0.002882040338590741 -0.004434542264789343 -0.014839010313153267" pbc="T T T"
Al       1.54321206       0.89379622       2.53645984        0      -0.00705419      -0.41529162       0.79444974      -0.25250161       0.39302880      -0.87834483
Al       0.03580899       1.79893951       4.98957804        1       0.09337859      -0.29525157      -0.61191956      -0.16601238       0.14058378       0.62745506
N        1.59619751       0.90645098       4.40111848        2      -0.02189763       1.09350694       0.27120886      -0.08899727      -0.09593875       0.34911519
N       -0.05911262       1.83464213       1.91219264        3      -0.06442681      -0.38296378      -0.45373905       0.50751138      -0.43767393      -0.09822541
