4
Lattice="3.128588 0.0 0.0 -1.5642939988088433 2.709436998432005 0.0 0.0 0.0 5.016955" Properties=species:S:1:pos:R:3:spacegroup_kinds:I:1:momenta:R:3:forces:R:3 spacegroup="P 1" unit_cell=conventional occupancy="_JSON {\"0\": {\"Al\": 1}, \"1\": {\"Al\": 1}, \"2\": {\"N\": 1}, \"3\": {\"N\": 1}}" energy=-29.673717498779297 free_energy=-29.673717498779297 stress="-0.002225330797955394 -1.3957336477687932e-06 1.8315298166982075e-09 -1.3957336477687932e-06 -0.0022273394279181957 -9.62624913114496e-09 1.8315298166982075e-09 -9.62624913114496e-09 -0.005453700199723244" pbc="T T T"
Al       1.56429556       0.90314476       2.50490041        0       0.68448204       0.53670047       0.91071479      -0.00003457       0.00002062       0.00553059
Al      -0.00000156       1.80629224       5.01337791        1       0.31075784       0.39520501      -1.87833745       0.00003489      -0.00001945       0.00552530
N        1.56429556       0.90314476       4.41849749        2      -0.23293981      -0.79739853      -0.40745139      -0.00003676       0.00001996      -0.00553016
N       -0.00000156       1.80629224       1.91001999        3      -0.76230006      -0.13450696       1.37507406       0.00003635      -0.00002121      -0.00552531
4
Lattice="3.128588 0.0 0.0 -1.5642939988088433 2.709436998432005 0.0 0.0 0.0 5.016955" Properties=species:S:1:pos:R:3:spacegroup_kinds:I:1:momenta:R:3:forces:R:3 spacegroup="P 1" unit_cell=conventional occupancy="_JSON {\"0\": {\"Al\": 1}, \"1\": {\"Al\": 1}, \"2\": {\"N\": 1}, \"3\": {\"N\": 1}}" energy=-29.43359375 free_energy=-29.43359375 stress="-0.013773340731859207 -0.01644648052752018 0.012948811054229736 -0.01644648052752018 -0.023968618363142014 0.009969750419259071 0.012948811054229736 0.009969750419259071 -0.012059325352311134" pbc="T T T"
Al       1.60246141       0.92231284       2.54150849        0       0.57498203      -0.13491985       1.02882480      -1.31301391      -0.49033552      -0.87831318
Al       0.00328789       1.81111139       4.94718774        1      -0.44725795       0.00118062      -1.07867311      -0.30154192      -0.59423292       1.18011951
N        1.53678588       0.85870780       4.38099594        2       0.14052030      -0.46066734       0.20203863       0.28490764       0.67984581       1.25553608
N       -0.05228245       1.80432671       2.00436659        3      -0.26824438       0.59440660      -0.15219035       1.32964826       0.40472260      -1.55734241
4
Lattice="3.128588 0.0 0.0 -1.5642939988088433 2.709436998432005 0.0 0.0 0.0 5.016955" Properties=species:S:1:pos:R:3:spacegroup_kinds:I:1:momenta:R:3:forces:R:3 spacegroup="P 1" unit_cell=conventional occupancy="_JSON {\"0\": {\"Al\": 1}, \"1\": {\"Al\": 1}, \"2\": {\"N\": 1}, \"3\": {\"N\": 1}}" energy=-29.567256927490234 free_energy=-29.567256927490234 stress="0.012915877625346184 0.001702522044070065 0.003579410957172513 0.001702522044070065 -0.025857016444206238 -0.005369079299271107 0.003579410957172513 -0.005369079299271107 -0.011435141786932945" pbc="T T T"
Al       1.59598186       0.90138486       2.55101265        0      -0.85003962      -0.64755163      -0.41676307      -0.33522552       0.74370384      -1.26921296
Al      -0.01311799       1.79082859       4.96769658        1      -0.24557023      -0.74327787       1.65595810      -0.18280217      -0.17026950       1.21499562
N        1.52960408       0.86779350       4.41996339        2       0.16413070       0.60763572       0.63654540       0.31887609       0.39321625      -0.09056941
N       -0.00060096       1.87475188       1.90756520        3       0.93147908       0.78319383      -1.87574046       0.19915135      -0.96665061       0.14478649
4
Lattice="3.128588 0.0 0.0 -1.5642939988088433 2.709436998432005 0.0 0.0 0.0 5.016955" Properties=species:S:1:pos:R:3:spacegroup_kinds:I:1:momenta:R:3:forces:R:3 spacegroup="P 1" unit_cell=conventional occupancy="_JSON {\"0\": {\"Al\": 1}, \"1\": {\"Al\": 1}, \"2\": {\"N\": 1}, \"3\": {\"N\": 1}}" energy=-29.406272888183594 free_energy=-29.406272888183594 stress="0.010688812471926212 0.01649821735918522 -0.00816403515636921 0.01649821735918522 -0.009423344396054745 -0.015553968958556652 -0.00816403515636921 -0.015553968958556652 -0.06125416234135628" pbc="T T T"
Al       1.53423929       0.87298461       2.51007451        0      -1.60925380       0.09619191      -1.03262343       0.74608946       1.00298524       0.03482483
Al      -0.01349003       1.78470223       5.05709167        1       0.21561229      -0.04339774       1.72443283       0.02271271       0.40732956      -1.66436863
N        1.55208974       0.92225130       4.42203506        2       0.38659398       0.63935792      -0.93002866       0.04495737      -0.39009666      -0.56986183
N        0.09667394       1.88681818       1.81230437        3       1.00704747      -0.69215208       0.23821922      -0.81375957      -1.02021813       2.19940519
4
Lattice="3.128588 0.0 0.0 -1.5642939988088433 2.709436998432005 0.0 0.0 0.0 5.016955" Properties=species:S:1:pos:R:3:spacegroup_kinds:I:1:momenta:R:3:forces:R:3 spacegroup="P 1" unit_cell=conventional occupancy="_JSON {\"0\": {\"Al\": 1}, \"1\": {\"Al\": 1}, \"2\": {\"N\": 1}, \"3\": {\"N\": 1}}" energy=-29.201902389526367 free_energy=-29.201902389526367 stress="-0.026440884917974472 0.038155604153871536 -0.03138246759772301 0.038155604153871536 -0.004877354018390179 0.0015436912653967738 -0.03138246759772301 0.0015436912653967738 -0.051819998770952225" pbc="T T T"
Al       1.49382402       0.87740193       2.48150486        0      -0.08661647      -0.02748768       0.25595526       2.48428082      -0.46186829       1.22611690
Al      -0.02076737       1.79337852       5.08843296        1       0.00716721       0.60209048      -1.27068324       0.64723271       0.57433462      -2.36004186
N        1.60157222       0.96971683       4.33361323        2       0.49437283       0.53651039      -0.17473353      -0.53882545      -0.70145404       1.74608970
N        0.13924905       1.81421453       1.89535167        3      -0.41492359      -1.11111315       1.18946154      -2.59268808       0.58898765      -0.61216474
4
Lattice="3.128588 0.0 0.0 -1.5642939988088433 2.709436998432005 0.0 0.0 0.0 5.016955" Properties=species:S:1:pos:R:3:spacegroup_kinds:I:1:momenta:R:3:forces:R:3 spacegroup="P 1" unit_cell=conventional occupancy="_JSON {\"0\": {\"Al\": 1}, \"1\": {\"Al\": 1}, \"2\": {\"N\": 1}, \"3\": {\"N\": 1}}" energy=-29.574626922607422 free_energy=-29.574626922607422 stress="-0.023618003353476524 -0.014321360737085342 -0.011127968318760395 -0.014321360737085342 0.015030192211270332 -0.0028546082321554422 -0.011127968318760395 -0.0028546082321554422 -0.014440406113862991" pbc="T T T"
Al       1.53421963       0.88369272       2.53780580        0       1.55944100       0.36820877       1.55971117       0.29264256      -0.24000555      -0.91367781
Al      -0.00048007       1.82107764       4.98837340        1       1.01688584       0.86374275      -2.47525529       0.94369471       0.52251601       0.78486550
N        1.63583965       0.96584648       4.40663187        2      -0.31021938      -0.52489289       1.27117366      -1.15103734      -0.78907192       0.05687840
N       -0.01177524       1.75252278       1.90648734        3      -2.26610756      -0.70705862      -0.35562954      -0.08530008       0.50656122       0.07193401
4
Lattice="3.128588 0.0 0.0 -1.5642939988088433 2.709436998432005 0.0 0.0 0.0 5.016955" Properties=species:S:1:pos:R:3:spacegroup_kinds:I:1:momenta:R:3:forces:R:3 spacegroup="P 1" unit_cell=conventional occupancy="_JSON {\"0\": {\"Al\": 1}, \"1\": {\"Al\": 1}, \"2\": {\"N\": 1}, \"3\": {\"N\": 1}}" energy=-29.372072219848633 free_energy=-29.372072219848633 stress="-0.005629740655422211 -0.018719375133514404 0.015849480405449867 -0.018719375133514404 -0.032273098826408386 0.01721220090985298 0.015849480405449867 0.01721220090985298 -0.00729826744645834" pbc="T T T"
Al       1.57072837       0.88046443       2.56331977        0      -0.00039244      -0.37629576      -0.57844033      -1.34386468      -0.44065949      -1.50707781
Al       0.05055071       1.86456079       4.94968566        1       0.52726991       0.77034140       1.04960215      -0.49129012      -1.36433756       1.82584953
N        1.58204797       0.88176661       4.44992391        2      -0.27832249      -1.02263367      -0.55459307       0.15003760       1.16376162      -0.85894907
N       -0.12661090       1.75915456       1.88869868        3      -0.24855506       0.62858809       0.08343125       1.68511736       0.64123553       0.54017711
4
Lattice="3.128588 0.0 0.0 -1.5642939988088433 2.709436998432005 0.0 0.0 0.0 5.016955" Properties=species:S:1:pos:R:3:spacegroup_kinds:I:1:momenta:R:3:forces:R:3 spacegroup="P 1" unit_cell=conventional occupancy="_JSON {\"0\": {\"Al\": 1}, \"1\": {\"Al\": 1}, \"2\": {\"N\": 1}, \"3\": {\"N\": 1}}" energy=-29.596923828125 free_energy=-29.596923828125 stress="0.015976138412952423 -0.004505940712988377 0.006018659099936485 -0.004505940712988377 -0.025499660521745682 -0.004597081337124109 0.006018659099936485 -0.004597081337124109 -0.010013899765908718" pbc="T T T"
Al       1.53284809       0.86390065       2.51395078        0      -1.59464544      -0.16469684      -1.74991331      -0.27820563       0.89915788      -0.15420456
Al       0.06317841       1.83227864       5.00948380        1       0.38439980      -1.80666597       1.59449953      -0.58708477      -0.41271737       0.16725044
N        1.58572475       0.89623787       4.41422574        2       0.14193190       1.12964938      -0.09119156       0.25704169       0.38076732       0.00228120
N       -0.08152109       1.83862426       1.90381444        3       1.06831367       0.84171351       0.24660529       0.60824865      -0.86720788      -0.01532715
4
Lattice="3.128588 0.0 0.0 -1.5642939988088433 2.709436998432005 0.0 0.0 0.0 5.016955" Properties=species:S:1:pos:R:3:spacegroup_kinds:I:1:momenta:R:3:forces:R:3 spacegroup="P 1" unit_cell=conventional occupancy="_JSON {\"0\": {\"Al\": 1}, \"1\": {\"Al\": 1}, \"2\": {\"N\": 1}, \"3\": {\"N\": 1}}" energy=-29.462553024291992 free_energy=-29.462553024291992 stress="-0.005697339307516813 0.010849491693079472 -0.0039065214805305 0.010849491693079472 -0.01913394033908844 -0.012703188695013523 -0.0039065214805305 -0.012703188695013523 -0.011871134862303734" pbc="T T T"
Al       1.48347331       0.88264396       2.44527931        0      -0.30454540       1.01149591      -0.60004538       0.88392907       0.95768523       1.70776606
Al       0.06164407       1.77681259       5.07306072        1      -0.86715281      -0.75617374       0.43048953      -0.30080599       0.71655428      -1.72279894
N        1.61717710       0.94947185       4.40498426        2       0.38645872       0.04830086       0.18623302      -0.07233994      -0.67486143       0.48910776
N       -0.01486932       1.85626148       1.92266695        3       0.78523942      -0.30362292      -0.01667719      -0.51078331      -0.99937809      -0.47407520
4
Lattice="3.128588 0.0 0.0 -1.5642939988088433 2.709436998432005 0.0 0.0 0.0 5.016955" Properties=species:S:1:pos:R:3:spacegroup_kinds:I:1:momenta:R:3:forces:R:3 spacegroup="P 1" unit_cell=conventional occupancy="_JSON {\"0\": {\"Al\": 1}, \"1\": {\"Al\": 1}, \"2\": {\"N\": 1}, \"3\": {\"N\": 1}}" energy=-29.51875114440918 free_energy=-29.51875114440918 stress="-0.023370865732431412 0.006539992522448301 -0.01609831303358078 0.006539992522448301 0.006697481963783503 -0.0004823758208658546 -0.01609831303358078 -0.0004823758208658546 -0.022161217406392097" pbc="T T T"
Al       1.50607637       0.94974321       2.46463696        0       1.15921291       0.62635187       1.50689798       1.24247563      -0.60704660       1.15697467
Al       0.01335468       1.75088041       5.06242875        1      -0.91111995       0.14825282      -0.88962587       0.51474595       0.69610572      -1.43089008
N        1.62637957       0.90489620       4.42127857        2      -0.14223552      -0.64065072       0.21498378      -0.71771777      -0.51824152      -0.07984938
N        0.02538013       1.82158363       1.88963023        3      -0.10585748      -0.13395389      -0.83225594      -1.03950334       0.42918274       0.35376421
4
Lattice="3.128588 0.0 0.0 -1.5642939988088433 2.709436998432005 0.0 0.0 0.0 5.016955" Properties=species:S:1:pos:R:3:spacegroup_kinds:I:1:momenta:R:3:forces:R:3 spacegroup="P 1" unit_cell=conventional occupancy="_JSON {\"0\": {\"Al\": 1}, \"1\": {\"Al\": 1}, \"2\": {\"N\": 1}, \"3\": {\"N\": 1}}" energy=-29.605010986328125 free_energy=-29.605010986328125 stress="0.001596009824424982 -0.006785868667066097 -0.0030953637324273586 -0.006785868667066097 0.001780688064172864 0.0017245071940124035 -0.0030953637324273586 0.0017245071940124035 -0.02311497926712036" pbc="T T T"
Al       1.56693925       0.93861030       2.54470905        0       1.44875394      -0.98943905       1.48437392      -0.01659365      -0.29131535      -1.20299530
Al      -0.01304571       1.78057348       4.99752454        1       0.01689796       1.11024943      -1.70730015       0.38438725       0.02358232       0.50759399
N        1.58384200       0.87104969       4.42155575        2      -0.67927467      -0.02704904      -0.19037170      -0.39236936       0.15177974      -0.39792675
N        0.00122212       1.81989282       1.85992055        3      -0.78637722      -0.09376130       0.41329799       0.02457594       0.11595328       1.09332800
4
Lattice="3.128588 0.0 0.0 -1.5642939988088433 2.709436998432005 0.0 0.0 0.0 5.016955" Properties=species:S:1:pos:R:3:spacegroup_kinds:I:1:momenta:R:3:forces:R:3 spacegroup="P 1" unit_cell=conventional occupancy="_JSON {\"0\": {\"Al\": 1}, \"1\": {\"Al\": 1}, \"2\": {\"N\": 1}, \"3\": {\"N\": 1}}" energy=-29.470205307006836 free_energy=-29.470205307006836 stress="0.0032031002920120955 -0.01780143566429615 0.011838380247354507 -0.01780143566429615 -0.041349124163389206 0.00735996151342988 0.011838380247354507 0.00735996151342988 -0.005160273052752018" pbc="T T T"
Al       1.62755631       0.89950076       2.54516751        0       1.04970811      -0.99981895      -0.80202827      -1.41065216       0.15933110      -0.91778910
Al      -0.00757060       1.81703572       4.95606283        1      -0.03758001       0.11959833      -0.16512875      -0.26242858      -0.84351361       1.41445756
N        1.52756231       0.85151207       4.42065485        2      -0.42752177       0.29023102      -0.07965751       0.31766063       0.98894417      -0.00115305
N       -0.06966669       1.84442117       1.93994538        3      -0.58460633       0.58998961       1.04681463       1.35542023      -0.30476177      -0.49551535
4
Lattice="3.128588 0.0 0.0 -1.5642939988088433 2.709436998432005 0.0 0.0 0.0 5.016955" Properties=species:S:1:pos:R:3:spacegroup_kinds:I:1:momenta:R:3:forces:R:3 spacegroup="P 1" unit_cell=conventional occupancy="_JSON {\"0\": {\"Al\": 1}, \"1\": {\"Al\": 1}, \"2\": {\"N\": 1}, \"3\": {\"N\": 1}}" energy=-29.452985763549805 free_energy=-29.452985763549805 stress="-0.013225069269537926 -0.023750005289912224 0.007911440916359425 -0.023750005289912224 -0.047932013869285583 -0.0073333121836185455 0.007911440916359425 -0.0073333121836185455 0.028632842004299164" pbc="T T T"
Al       1.63184044       0.85684027       2.46693550        0      -0.97589076      -0.55899499      -1.34838378      -1.39010668       1.11026490       1.17303646
Al      -0.02377748       1.82170281       4.98999598        1      -0.28018832       0.45883575       1.28013557      -0.08532748       0.08283686       0.34697765
N        1.52792698       0.92957755       4.44479004        2       0.11446465       0.97873200       0.08012593       0.22036436      -0.17398985       0.05598876
N       -0.04718874       1.83921503       2.00086012        3       1.14161443      -0.87857276      -0.01187764       1.25506973      -1.01911199      -1.57600236
4
Lattice="3.128588 0.0 0.0 -1.5642939988088433 2.709436998432005 0.0 0.0 0.0 5.016955" Properties=species:S:1:pos:R:3:spacegroup_kinds:I:1:momenta:R:3:forces:R:3 spacegroup="P 1" unit_cell=conventional occupancy="_JSON {\"0\": {\"Al\": 1}, \"1\": {\"Al\": 1}, \"2\": {\"N\": 1}, \"3\": {\"N\": 1}}" energy=-29.53631591796875 free_energy=-29.53631591796875 stress="-0.019857430830597878 0.013828999362885952 -0.005717387422919273 0.013828999362885952 -0.003163970774039626 -0.0016710333293303847 -0.005717387422919273 -0.0016710333293303847 -0.006260567344725132" pbc="T T T"
Al       1.56291508       0.86348348       2.43836897        0      -1.44558915       0.38889126       0.34074977       0.67286021       0.11609408       1.45909548
Al      -0.01834145       1.83613139       5.05736569        1       0.19731524      -0.00921486       1.04742097       0.06595246       0.15003654      -1.19267249
N        1.54726695       0.95741148       4.47045644        2      -0.01024014       0.05684983       0.14844065       0.09761387      -0.44420910      -0.65174860
N        0.05576968       1.77068660       1.90062726        3       1.25851403      -0.43652625      -1.53661138      -0.83642638       0.17807856       0.38532552
4
Lattice="3.128588 0.0 0.0 -1.5642939988088433 2.709436998432005 0.0 0.0 0.0 5.016955" Properties=species:S:1:pos:R:3:spacegroup_kinds:I:1:momenta:R:3:forces:R:3 spacegroup="P 1" unit_cell=conventional occupancy="_JSON {\"0\": {\"Al\": 1}, \"1\": {\"Al\": 1}, \"2\": {\"N\": 1}, \"3\": {\"N\": 1}}" energy=-29.531002044677734 free_energy=-29.531002044677734 stress="-0.018293995410203934 0.01570752076804638 -0.011607722379267216 0.01570752076804638 0.003148191375657916 0.004605656955391169 -0.011607722379267216 0.004605656955391169 -0.017258819192647934" pbc="T T T"
Al       1.54701074       0.87273545       2.46070915        0       0.71855760      -0.11584414       0.49435385       1.07476592      -0.28505579       1.06925452
Al      -0.01761630       1.84389398       5.05391118        1       0.19346426       0.17720396      -0.69190202       0.23187637      -0.07941860      -1.16825199
N        1.56395349       0.94331120       4.45961401        2       0.32487446      -0.12409404      -0.51346247      -0.11547001      -0.20503435      -0.72920173
N        0.06831355       1.75176762       1.87546339        3      -1.23689632       0.06273423       0.71101057      -1.19117224       0.56950897       0.82819927
4
Lattice="3.128588 0.0 0.0 -1.5642939988088433 2.709436998432005 0.0 0.0 0.0 5.016955" Properties=species:S:1:pos:R:3:spacegroup_kinds:I:1:momenta:R:3:forces:R:3 spacegroup="P 1" unit_cell=conventional occupancy="_JSON {\"0\": {\"Al\": 1}, \"1\": {\"Al\": 1}, \"2\": {\"N\": 1}, \"3\": {\"N\": 1}}" energy=-29.61321258544922 free_energy=-29.61321258544922 stress="-0.008381667546927929 -0.004276738502085209 0.005492847878485918 -0.004276738502085209 -0.013937214389443398 0.0014805105747655034 0.005492847878485918 0.0014805105747655034 0.012475275434553623" pbc="T T T"
Al       1.57767910       0.87033375       2.48321565        0       0.42145942      -0.10086054       0.75449360      -0.50598669       0.14215294       0.64867681
Al       0.00878680       1.84488742       5.00616576        1       0.94842528       0.04829590      -0.67234630      -0.28190809      -0.37569690       0.05942754
N        1.54733735       0.91884314       4.41695257        2      -0.50233556      -0.06173781      -0.86681684       0.26756555       0.16352475       0.34766793
N       -0.02491944       1.77881443       1.96659671        3      -0.86754913       0.11430244       0.78466953       0.52032924       0.07001894      -1.05577230
4
Lattice="3.128588 0.0 0.0 -1.5642939988088433 2.709436998432005 0.0 0.0 0.0 5.016955" Properties=species:S:1:pos:R:3:spacegroup_kinds:I:1:momenta:R:3:forces:R:3 spacegroup="P 1" unit_cell=conventional occupancy="_JSON {\"0\": {\"Al\": 1}, \"1\": {\"Al\": 1}, \"2\": {\"N\": 1}, \"3\": {\"N\": 1}}" energy=-29.557836532592773 free_energy=-29.557836532592773 stress="-0.01636366918683052 -0.002947926986962557 0.012903930619359016 -0.002947926986962557 -0.0062078069895505905 0.0015377020463347435 0.012903930619359016 0.0015377020463347435 -0.002714854897931218" pbc="T T T"
Al       1.59068816       0.88023427       2.52274585        0      -0.41625639       0.17887071       0.33160702      -0.90884244      -0.14031479      -0.36868197
Al       0.01872290       1.83477378       4.97781991        1       0.14973949      -0.20763022      -0.17578454      -0.72829694      -0.10046099       0.72653359
N        1.52039171       0.92489999       4.39464373        2       0.19754419       0.25939849       0.47781844       0.72475815      -0.09605215       0.71574104
N       -0.04216870       1.77342028       1.96745704        3       0.06897270      -0.23063903      -0.63364098       0.91238117       0.33682799      -1.07359266
4
Lattice="3.128588 0.0 0.0 -1.5642939988088433 2.709436998432005 0.0 0.0 0.0 5.016955" Properties=species:S:1:pos:R:3:spacegroup_kinds:I:1:momenta:R:3:forces:R:3 spacegroup="P 1" unit_cell=conventional occupancy="_JSON {\"0\": {\"Al\": 1}, \"1\": {\"Al\": 1}, \"2\": {\"N\": 1}, \"3\": {\"N\": 1}}" energy=-29.621112823486328 free_energy=-29.621112823486328 stress="-0.02150067314505577 0.005276413168758154 -0.0032674195244908333 0.005276413168758154 0.01065776962786913 0.0019252081401646137 -0.0032674195244908333 0.0019252081401646137 -0.0015898625133559108" pbc="T T T"
Al       1.54767649       0.89587761       2.50832855        0      -0.85810061       0.46896541      -1.00003050       0.39160347      -0.39029095      -0.15032022
Al       0.00665799       1.82067517       5.00342499        1      -0.72966946      -0.11082604       1.46536816      -0.00949531       0.22696725       0.34862757
N        1.57185933       0.94293297       4.45440723        2       0.62349840      -0.37686569       0.64593218      -0.01970149      -0.43335176      -0.83890074
N        0.01256031       1.75229422       1.88600533        3       0.96427166       0.01872631      -1.11126986      -0.36240667       0.59667540       0.64059347
4
Lattice="3.128588 0.0 0.0 -1.5642939988088433 2.709436998432005 0.0 0.0 0.0 5.016955" Properties=species:S:1:pos:R:3:spacegroup_kinds:I:1:momenta:R:3:forces:R:3 spacegroup="P 1" unit_cell=conventional occupancy="_JSON {\"0\": {\"Al\": 1}, \"1\": {\"Al\": 1}, \"2\": {\"N\": 1}, \"3\": {\"N\": 1}}" energy=-29.520854949951172 free_energy=-29.520854949951172 stress="-0.014047547243535519 0.011821159161627293 -0.014255568385124207 0.011821159161627293 -0.005614526569843292 0.009361478500068188 -0.014255568385124207 0.009361478500068188 -0.019570939242839813" pbc="T T T"
Al       1.52999426       0.91403917       2.46474569        0       0.09545122      -0.23101223      -1.18071318       1.21875513      -0.63577503       0.99290109
Al      -0.00890656       1.82180736       5.05208969        1       0.31216935      -0.10747453       0.45537655       0.39472643      -0.38378552      -1.12710428
N        1.59437711       0.88605550       4.45928986        2      -0.04799067      -0.53350340      -0.20523351      -0.40810490       0.35579145      -0.79021549
N        0.05384453       1.77207217       1.87144997        3      -0.35962995       0.87199017       0.93057011      -1.20537663       0.66376907       0.92441851
4
Lattice="3.128588 0.0 0.0 -1.5642939988088433 2.709436998432005 0.0 0.0 0.0 5.016955" Properties=species:S:1:pos:R:3:spacegroup_kinds:I:1:momenta:R:3:forces:R:3 spacegroup="P 1" unit_cell=conventional occupancy="_JSON {\"0\": {\"Al\": 1}, \"1\": {\"Al\": 1}, \"2\": {\"N\": 1}, \"3\": {\"N\": 1}}" energy=-29.618785858154297 free_energy=-29.618785858154297 stress="0.010117795318365097 -0.0018219215562567115 -0.00187302241101861 -0.0018219215562567115 -0.024782974272966385 0.004591112490743399 -0.00187302241101861 0.004591112490743399 2.6385818273411132e-05" pbc="T T T"
Al       1.53818033       0.90928018       2.47247631        0       0.23228612      -0.27447314       1.41733355       0.21200839       0.18702203       0.85530668
Al       0.01802691       1.81430745       5.03506516        1       0.60360865      -0.42930329      -1.11140873       0.03760086      -0.69444215      -0.55142522
N        1.59518008       0.85128044       4.42414642        2       0.09084549       0.02420754      -0.77345478      -0.19470179       0.84070611       0.01228061
N       -0.01452981       1.83034436       1.92467361        3      -0.92674033       0.67956890       0.46752997      -0.05490753      -0.33328587      -0.31616235
4
Lattice="3.128588 0.0 0.0 -1.5642939988088433 2.709436998432005 0.0 0.0 0.0 5.016955" Properties=species:S:1:pos:R:3:spacegroup_kinds:I:1:momenta:R:3:forces:R:3 spacegroup="P 1" unit_cell=conventional occupancy="_JSON {\"0\": {\"Al\": 1}, \"1\": {\"Al\": 1}, \"2\": {\"N\": 1}, \"3\": {\"N\": 1}}" energy=-29.62373924255371 free_energy=-29.62373924255371 stress="0.004300088156014681 -0.008672727271914482 0.002882040338590741 -0.008672727271914482 -0.00694380234926939 -0.004434542264789343 0.002882040338590741 -0.004434542264789343 -0.014839010313153267" pbc="T T T"
Al       1.54321206       0.89379622       2.53645984        0      -0.00705419      -0.41529162       0.79444974      -0.25250161       0.39302880      -0.87834483
Al       0.03580899       1.79893951       4.98957804        1       0.09337859      -0.29525157      -0.61191956      -0.16601238       0.14058378       0.62745506
N        1.59619751       0.90645098       4.40111848        2      -0.02189763       1.09350694       0.27120886      -0.08899727      -0.09593875       0.34911519
N       -0.05911262       1.83464213       1.91219264        3      -0.06442681      -0.38296378      -0.45373905       0.50751138      -0.43767393      -0.09822541
