4
Lattice="3.128588 0.0 0.0 -1.5642939988088433 2.709436998432005 0.0 0.0 0.0 5.016955" Properties=species:S:1:pos:R:3:spacegroup_kinds:I:1:forces:R:3 spacegroup="P 1" unit_cell=conventional occupancy="_JSON {\"0\": {\"Al\": 1}, \"1\": {\"Al\": 1}, \"2\": {\"N\": 1}, \"3\": {\"N\": 1}}" energy=-29.673717498779297 free_energy=-29.673717498779297 stress="-0.002225330797955394 -1.3957336477687932e-06 1.8315298166982075e-09 -1.3957336477687932e-06 -0.0022273394279181957 -9.62624913114496e-09 1.8315298166982075e-09 -9.62624913114496e-09 -0.005453700199723244" pbc="T T T"
Al       1.56429556       0.90314476       2.50490041        0      -0.00003457       0.00002062       0.00553059
Al      -0.00000156       1.80629224       5.01337791        1       0.00003489      -0.00001945       0.00552530
N        1.56429556       0.90314476       4.41849749        2      -0.00003676       0.00001996      -0.00553016
N       -0.00000156       1.80629224       1.91001999        3       0.00003635      -0.00002121      -0.00552531
