4
Lattice="3.128588 0.0 0.0 -1.5642939988088433 2.709436998432005 0.0 0.0 0.0 5.016955" Properties=species:S:1:pos:R:3:spacegroup_kinds:I:1:momenta:R:3:forces:R:3 spacegroup="P 1" unit_cell=conventional occupancy="_JSON {\"0\": {\"Al\": 1}, \"1\": {\"Al\": 1}, \"2\": {\"N\": 1}, \"3\": {\"N\": 1}}" energy=-29.623743057250977 free_energy=-29.623743057250977 stress="0.004300392232835293 -0.008672802709043026 0.0028822224121540785 -0.008672802709043026 -0.006943856831640005 -0.0044348398223519325 0.0028822224121540785 -0.0044348398223519325 -0.014838517643511295" pbc="T T T"
Al       1.54321203       0.89379621       2.53645986        0      -0.00705431      -0.41529136       0.79444992      -0.25250065       0.39303246      -0.87833607
Al       0.03580901       1.79893951       4.98957806        1       0.09337983      -0.29525097      -0.61191887      -0.16601400       0.14058074       0.62744510
N        1.59619756       0.90645098       4.40111853        2      -0.02189902       1.09350627       0.27120795      -0.08899555      -0.09593724       0.34910515
N       -0.05911263       1.83464215       1.91219259        3      -0.06442651      -0.38296394      -0.45373901       0.50751036      -0.43767619      -0.09821446
