4
Lattice="3.128588 0.0 0.0 -1.5642939988088433 2.709436998432005 0.0 0.0 0.0 5.016955" Properties=species:S:1:pos:R:3:spacegroup_kinds:I:1:momenta:R:3:forces:R:3 spacegroup="P 1" unit_cell=conventional occupancy="_JSON {\"0\": {\"Al\": 1}, \"1\": {\"Al\": 1}, \"2\": {\"N\": 1}, \"3\": {\"N\": 1}}" energy=-29.673717498779297 free_energy=-29.673717498779297 stress="-0.002225445816293359 -1.3440238717521424e-06 -9.514398158216864e-09 -1.3440238717521424e-06 -0.0022274935618042946 -2.462084047749613e-08 -9.514398158216864e-09 -2.462084047749613e-08 -0.005453761667013168" pbc="T T T"
Al       1.56429556       0.90314476       2.50490041        0       0.68448204       0.53670047       0.91071479      -0.00003486       0.00002113       0.00553149
Al      -0.00000156       1.80629224       5.01337791        1       0.31075784       0.39520501      -1.87833745       0.00003493      -0.00001927       0.00552484
N        1.56429556       0.90314476       4.41849749        2      -0.23293981      -0.79739853      -0.40745139      -0.00003694       0.00001949      -0.00553060
N       -0.00000156       1.80629224       1.91001999        3      -0.76230006      -0.13450696       1.37507406       0.00003683      -0.00002161      -0.00552559
4
Lattice="3.128588 0.0 0.0 -1.5642939988088433 2.709436998432005 0.0 0.0 0.0 5.016955" Properties=species:S:1:pos:R:3:spacegroup_kinds:I:1:momenta:R:3:forces:R:3 spacegroup="P 1" unit_cell=conventional occupancy="_JSON {\"0\": {\"Al\": 1}, \"1\": {\"Al\": 1}, \"2\": {\"N\": 1}, \"3\": {\"N\": 1}}" energy=-29.43359375 free_energy=-29.43359375 stress="-0.013773374259471893 -0.016446366906166077 0.012948796153068542 -0.016446366906166077 -0.023968633264303207 0.009969722479581833 0.012948796153068542 0.009969722479581833 -0.012059425935149193" pbc="T T T"
Al       1.60246141       0.92231284       2.54150849        0       0.57498208      -0.13491988       1.02882479      -1.31301320      -0.49033296      -0.87831384
Al       0.00328788       1.81111139       4.94718775        1      -0.44725814       0.00118041      -1.07867302      -0.30154145      -0.59423244       1.18011856
N        1.53678588       0.85870780       4.38099594        2       0.14052037      -0.46066713       0.20203861       0.28490734       0.67984492       1.25553620
N       -0.05228245       1.80432671       2.00436659        3      -0.26824435       0.59440667      -0.15219041       1.32964706       0.40472034      -1.55734086
4
Lattice="3.128588 0.0 0.0 -1.5642939988088433 2.709436998432005 0.0 0.0 0.0 5.016955" Properties=species:S:1:pos:R:3:spacegroup_kinds:I:1:momenta:R:3:forces:R:3 spacegroup="P 1" unit_cell=conventional occupancy="_JSON {\"0\": {\"Al\": 1}, \"1\": {\"Al\": 1}, \"2\": {\"N\": 1}, \"3\": {\"N\": 1}}" energy=-29.5672550201416 free_energy=-29.5672550201416 stress="0.012915734201669693 0.001702506560832262 0.0035793674178421497 0.001702506560832262 -0.02585706114768982 -0.005369157996028662 0.0035793674178421497 -0.005369157996028662 -0.011435243301093578" pbc="T T T"
Al       1.59598186       0.90138486       2.55101266        0      -0.85003984      -0.64755156      -0.41676277      -0.33522779       0.74370456      -1.26921213
Al      -0.01311800       1.79082858       4.96769658        1      -0.24557048      -0.74327783       1.65595788      -0.18280323      -0.17026818       1.21499658
N        1.52960409       0.86779352       4.41996339        2       0.16413089       0.60763573       0.63654550       0.31887752       0.39321417      -0.09056859
N       -0.00060095       1.87475190       1.90756519        3       0.93147939       0.78319369      -1.87574062       0.19915339      -0.96665061       0.14478420
4
Lattice="3.128588 0.0 0.0 -1.5642939988088433 2.709436998432005 0.0 0.0 0.0 5.016955" Properties=species:S:1:pos:R:3:spacegroup_kinds:I:1:momenta:R:3:forces:R:3 spacegroup="P 1" unit_cell=conventional occupancy="_JSON {\"0\": {\"Al\": 1}, \"1\": {\"Al\": 1}, \"2\": {\"N\": 1}, \"3\": {\"N\": 1}}" energy=-29.406274795532227 free_energy=-29.406274795532227 stress="0.010688806883990765 0.016498135402798653 -0.008163999766111374 0.016498135402798653 -0.009423157200217247 -0.01555400900542736 -0.008163999766111374 -0.01555400900542736 -0.061254072934389114" pbc="T T T"
Al       1.53423928       0.87298461       2.51007454        0      -1.60925381       0.09619200      -1.03262310       0.74608850       1.00298595       0.03482272
Al      -0.01349005       1.78470222       5.05709164        1       0.21561232      -0.04339768       1.72443249       0.02271242       0.40732974      -1.66436863
N        1.55208976       0.92225132       4.42203507        2       0.38659384       0.63935797      -0.93002905       0.04495798      -0.39009696      -0.56986147
N        0.09667397       1.88681819       1.81230436        3       1.00704760      -0.69215225       0.23821968      -0.81375903      -1.02021861       2.19940734
4
Lattice="3.128588 0.0 0.0 -1.5642939988088433 2.709436998432005 0.0 0.0 0.0 5.016955" Properties=species:S:1:pos:R:3:spacegroup_kinds:I:1:momenta:R:3:forces:R:3 spacegroup="P 1" unit_cell=conventional occupancy="_JSON {\"0\": {\"Al\": 1}, \"1\": {\"Al\": 1}, \"2\": {\"N\": 1}, \"3\": {\"N\": 1}}" energy=-29.201902389526367 free_energy=-29.201902389526367 stress="-0.02644081600010395 0.03815541788935661 -0.03138258680701256 0.03815541788935661 -0.004877195693552494 0.001543771126307547 -0.03138258680701256 0.001543771126307547 -0.051819901913404465" pbc="T T T"
Al       1.49382403       0.87740193       2.48150490        0      -0.08661648      -0.02748759       0.25595538       2.48428202      -0.46186849       1.22612000
Al      -0.02076738       1.79337853       5.08843292        1       0.00716740       0.60209094      -1.27068297       0.64723122       0.57433456      -2.36004210
N        1.60157223       0.96971683       4.33361322        2       0.49437269       0.53651009      -0.17473353      -0.53882456      -0.70145369       1.74608958
N        0.13924906       1.81421453       1.89535167        3      -0.41492361      -1.11111336       1.18946121      -2.59268832       0.58898759      -0.61216736
4
Lattice="3.128588 0.0 0.0 -1.5642939988088433 2.709436998432005 0.0 0.0 0.0 5.016955" Properties=species:S:1:pos:R:3:spacegroup_kinds:I:1:momenta:R:3:forces:R:3 spacegroup="P 1" unit_cell=conventional occupancy="_JSON {\"0\": {\"Al\": 1}, \"1\": {\"Al\": 1}, \"2\": {\"N\": 1}, \"3\": {\"N\": 1}}" energy=-29.57462501525879 free_energy=-29.57462501525879 stress="-0.023618118837475777 -0.014321530237793922 -0.011128032580018044 -0.014321530237793922 0.015029961243271828 -0.0028545514214783907 -0.011128032580018044 -0.0028545514214783907 -0.014440364204347134" pbc="T T T"
Al       1.53421963       0.88369272       2.53780582        0       1.55944092       0.36820881       1.55971010       0.29264203      -0.24000415      -0.91367590
Al      -0.00048008       1.82107766       4.98837340        1       1.01688567       0.86374306      -2.47525425       0.94369411       0.52251267       0.78486204
N        1.63583966       0.96584646       4.40663187        2      -0.31021920      -0.52489303       1.27117360      -1.15103686      -0.78906727       0.05688068
N       -0.01177523       1.75252278       1.90648731        3      -2.26610741      -0.70705879      -0.35562937      -0.08529924       0.50655890       0.07193312
4
Lattice="3.128588 0.0 0.0 -1.5642939988088433 2.709436998432005 0.0 0.0 0.0 5.016955" Properties=species:S:1:pos:R:3:spacegroup_kinds:I:1:momenta:R:3:forces:R:3 spacegroup="P 1" unit_cell=conventional occupancy="_JSON {\"0\": {\"Al\": 1}, \"1\": {\"Al\": 1}, \"2\": {\"N\": 1}, \"3\": {\"N\": 1}}" energy=-29.372072219848633 free_energy=-29.372072219848633 stress="-0.005629746243357658 -0.018719302490353584 0.01584949716925621 -0.018719302490353584 -0.03227291256189346 0.017212234437465668 0.01584949716925621 0.017212234437465668 -0.007298261858522892" pbc="T T T"
Al       1.57072837       0.88046443       2.56331974        0      -0.00039245      -0.37629549      -0.57844097      -1.34386611      -0.44065848      -1.50707650
Al       0.05055071       1.86456081       4.94968570        1       0.52727022       0.77034108       1.04960257      -0.49129087      -1.36433542       1.82584929
N        1.58204797       0.88176659       4.44992392        2      -0.27832267      -1.02263342      -0.55459306       0.15003859       1.16375935      -0.85894865
N       -0.12661088       1.75915455       1.88869868        3      -0.24855510       0.62858788       0.08343149       1.68511868       0.64123452       0.54017586
4
Lattice="3.128588 0.0 0.0 -1.5642939988088433 2.709436998432005 0.0 0.0 0.0 5.016955" Properties=species:S:1:pos:R:3:spacegroup_kinds:I:1:momenta:R:3:forces:R:3 spacegroup="P 1" unit_cell=conventional occupancy="_JSON {\"0\": {\"Al\": 1}, \"1\": {\"Al\": 1}, \"2\": {\"N\": 1}, \"3\": {\"N\": 1}}" energy=-29.596923828125 free_energy=-29.596923828125 stress="0.01597633585333824 -0.004505929071456194 0.006018701009452343 -0.004505929071456194 -0.0254996158182621 -0.004597128368914127 0.006018701009452343 -0.004597128368914127 -0.010013921186327934" pbc="T T T"
Al       1.53284808       0.86390065       2.51395075        0      -1.59464569      -0.16469673      -1.74991277      -0.27820796       0.89916003      -0.15420574
Al       0.06317841       1.83227865       5.00948382        1       0.38439980      -1.80666641       1.59449898      -0.58708429      -0.41271651       0.16725145
N        1.58572476       0.89623788       4.41422577        2       0.14193205       1.12964973      -0.09119126       0.25704134       0.38076675       0.00228062
N       -0.08152106       1.83862424       1.90381443        3       1.06831384       0.84171348       0.24660510       0.60825074      -0.86721015      -0.01532630
4
Lattice="3.128588 0.0 0.0 -1.5642939988088433 2.709436998432005 0.0 0.0 0.0 5.016955" Properties=species:S:1:pos:R:3:spacegroup_kinds:I:1:momenta:R:3:forces:R:3 spacegroup="P 1" unit_cell=conventional occupancy="_JSON {\"0\": {\"Al\": 1}, \"1\": {\"Al\": 1}, \"2\": {\"N\": 1}, \"3\": {\"N\": 1}}" energy=-29.462554931640625 free_energy=-29.462554931640625 stress="-0.005697010084986687 0.010849473997950554 -0.003906572703272104 0.010849473997950554 -0.01913381554186344 -0.01270319614559412 -0.003906572703272104 -0.01270319614559412 -0.011871387250721455" pbc="T T T"
Al       1.48347329       0.88264396       2.44527933        0      -0.30454533       1.01149581      -0.60004397       0.88393128       0.95768440       1.70777059
Al       0.06164408       1.77681258       5.07306070        1      -0.86715270      -0.75617393       0.43048826      -0.30080774       0.71655369      -1.72280157
N        1.61717711       0.94947187       4.40498427        2       0.38645885       0.04830096       0.18623286      -0.07233849      -0.67486089       0.48910770
N       -0.01486928       1.85626149       1.92266698        3       0.78523918      -0.30362278      -0.01667708      -0.51078534      -0.99937713      -0.47407696
4
Lattice="3.128588 0.0 0.0 -1.5642939988088433 2.709436998432005 0.0 0.0 0.0 5.016955" Properties=species:S:1:pos:R:3:spacegroup_kinds:I:1:momenta:R:3:forces:R:3 spacegroup="P 1" unit_cell=conventional occupancy="_JSON {\"0\": {\"Al\": 1}, \"1\": {\"Al\": 1}, \"2\": {\"N\": 1}, \"3\": {\"N\": 1}}" energy=-29.518747329711914 free_energy=-29.518747329711914 stress="-0.02337094210088253 0.006539901252835989 -0.016098061576485634 0.006539901252835989 0.006697290111333132 -0.00048240594333037734 -0.016098061576485634 -0.00048240594333037734 -0.02216011844575405" pbc="T T T"
Al       1.50607638       0.94974321       2.46463704        0       1.15921353       0.62635203       1.50689911       1.24247384      -0.60704601       1.15697491
Al       0.01335468       1.75088040       5.06242871        1      -0.91111997       0.14825289      -0.88962584       0.51474696       0.69610602      -1.43088508
N        1.62637959       0.90489621       4.42127855        2      -0.14223542      -0.64065083       0.21498336      -0.71771741      -0.51824272      -0.07984847
N        0.02538011       1.82158363       1.88963021        3      -0.10585810      -0.13395403      -0.83225657      -1.03950322       0.42918259       0.35375869
4
Lattice="3.128588 0.0 0.0 -1.5642939988088433 2.709436998432005 0.0 0.0 0.0 5.016955" Properties=species:S:1:pos:R:3:spacegroup_kinds:I:1:momenta:R:3:forces:R:3 spacegroup="P 1" unit_cell=conventional occupancy="_JSON {\"0\": {\"Al\": 1}, \"1\": {\"Al\": 1}, \"2\": {\"N\": 1}, \"3\": {\"N\": 1}}" energy=-29.60500717163086 free_energy=-29.60500717163086 stress="0.0015957113355398178 -0.0067858085967600346 -0.0030954978428781033 -0.0067858085967600346 0.0017802438233047724 0.001724323956295848 -0.0030954978428781033 0.001724323956295848 -0.02311372198164463" pbc="T T T"
Al       1.56693926       0.93861031       2.54470914        0       1.44875344      -0.98943873       1.48437255      -0.01659247      -0.29131639      -1.20300603
Al      -0.01304570       1.78057348       4.99752452        1       0.01689798       1.11024937      -1.70729909       0.38438872       0.02358175       0.50760311
N        1.58384202       0.87104969       4.42155566        2      -0.67927473      -0.02704911      -0.19037170      -0.39237064       0.15177964      -0.39792410
N        0.00122212       1.81989280       1.85992054        3      -0.78637666      -0.09376149       0.41329832       0.02457445       0.11595497       1.09332657
4
Lattice="3.128588 0.0 0.0 -1.5642939988088433 2.709436998432005 0.0 0.0 0.0 5.016955" Properties=species:S:1:pos:R:3:spacegroup_kinds:I:1:momenta:R:3:forces:R:3 spacegroup="P 1" unit_cell=conventional occupancy="_JSON {\"0\": {\"Al\": 1}, \"1\": {\"Al\": 1}, \"2\": {\"N\": 1}, \"3\": {\"N\": 1}}" energy=-29.470205307006836 free_energy=-29.470205307006836 stress="0.003203254658728838 -0.017801543697714806 0.011838329955935478 -0.017801543697714806 -0.04134901985526085 0.007359910756349564 0.011838329955935478 0.007359910756349564 -0.0051603796891868114" pbc="T T T"
Al       1.62755629       0.89950077       2.54516751        0       1.04970775      -0.99981921      -0.80202996      -1.41065121       0.15933231      -0.91778708
Al      -0.00757059       1.81703573       4.95606286        1      -0.03757990       0.11959857      -0.16512808      -0.26242486      -0.84351552       1.41445458
N        1.52756232       0.85151204       4.42065483        2      -0.42752196       0.29023054      -0.07965635       0.31765649       0.98894584      -0.00115233
N       -0.06966666       1.84442117       1.93994539        3      -0.58460583       0.58999009       1.04681450       1.35541964      -0.30476269      -0.49551487
4
Lattice="3.128588 0.0 0.0 -1.5642939988088433 2.709436998432005 0.0 0.0 0.0 5.016955" Properties=species:S:1:pos:R:3:spacegroup_kinds:I:1:momenta:R:3:forces:R:3 spacegroup="P 1" unit_cell=conventional occupancy="_JSON {\"0\": {\"Al\": 1}, \"1\": {\"Al\": 1}, \"2\": {\"N\": 1}, \"3\": {\"N\": 1}}" energy=-29.452985763549805 free_energy=-29.452985763549805 stress="-0.013225060887634754 -0.02375006675720215 0.007911410182714462 -0.02375006675720215 -0.04793223738670349 -0.007333289831876755 0.007911410182714462 -0.007333289831876755 0.028632747009396553" pbc="T T T"
Al       1.63184042       0.85684028       2.46693547        0      -0.97589025      -0.55899484      -1.34838376      -1.39010549       1.11026585       1.17303622
Al      -0.02377747       1.82170282       4.98999599        1      -0.28018843       0.45883560       1.28013519      -0.08532664       0.08283530       0.34697801
N        1.52792698       0.92957751       4.44479012        2       0.11446482       0.97873226       0.08012636       0.22036333      -0.17398855       0.05598737
N       -0.04718869       1.83921504       2.00086011        3       1.14161383      -0.87857301      -0.01187772       1.25506878      -1.01911283      -1.57600141
4
Lattice="3.128588 0.0 0.0 -1.5642939988088433 2.709436998432005 0.0 0.0 0.0 5.016955" Properties=species:S:1:pos:R:3:spacegroup_kinds:I:1:momenta:R:3:forces:R:3 spacegroup="P 1" unit_cell=conventional occupancy="_JSON {\"0\": {\"Al\": 1}, \"1\": {\"Al\": 1}, \"2\": {\"N\": 1}, \"3\": {\"N\": 1}}" energy=-29.536317825317383 free_energy=-29.536317825317383 stress="-0.01985769346356392 0.013828879222273827 -0.005717424675822258 0.013828879222273827 -0.003164365654811263 -0.0016709653427824378 -0.005717424675822258 -0.0016709653427824378 -0.006260567344725132" pbc="T T T"
Al       1.56291509       0.86348349       2.43836894        0      -1.44558869       0.38889128       0.34075011       0.67285895       0.11609507       1.45909548
Al      -0.01834145       1.83613140       5.05736571        1       0.19731516      -0.00921496       1.04742110       0.06595255       0.15003473      -1.19267321
N        1.54726697       0.95741147       4.47045646        2      -0.01024003       0.05685014       0.14844005       0.09761368      -0.44420826      -0.65174878
N        0.05576968       1.77068658       1.90062729        3       1.25851354      -0.43652647      -1.53661123      -0.83642507       0.17807850       0.38532627
4
Lattice="3.128588 0.0 0.0 -1.5642939988088433 2.709436998432005 0.0 0.0 0.0 5.016955" Properties=species:S:1:pos:R:3:spacegroup_kinds:I:1:momenta:R:3:forces:R:3 spacegroup="P 1" unit_cell=conventional occupancy="_JSON {\"0\": {\"Al\": 1}, \"1\": {\"Al\": 1}, \"2\": {\"N\": 1}, \"3\": {\"N\": 1}}" energy=-29.5310001373291 free_energy=-29.5310001373291 stress="-0.01829390972852707 0.01570759527385235 -0.011607700958848 0.01570759527385235 0.0031480330508202314 0.004605663008987904 -0.011607700958848 0.004605663008987904 -0.01725885272026062" pbc="T T T"
Al       1.54701076       0.87273546       2.46070915        0       0.71855761      -0.11584416       0.49435388       1.07476938      -0.28505749       1.06925464
Al      -0.01761629       1.84389398       5.05391121        1       0.19346481       0.17720414      -0.69190145       0.23187646      -0.07941894      -1.16825151
N        1.56395351       0.94331122       4.45961399        2       0.32487410      -0.12409396      -0.51346266      -0.11547048      -0.20503289      -0.72920269
N        0.06831351       1.75176759       1.87546340        3      -1.23689656       0.06273398       0.71101021      -1.19117546       0.56950939       0.82819968
4
Lattice="3.128588 0.0 0.0 -1.5642939988088433 2.709436998432005 0.0 0.0 0.0 5.016955" Properties=species:S:1:pos:R:3:spacegroup_kinds:I:1:momenta:R:3:forces:R:3 spacegroup="P 1" unit_cell=conventional occupancy="_JSON {\"0\": {\"Al\": 1}, \"1\": {\"Al\": 1}, \"2\": {\"N\": 1}, \"3\": {\"N\": 1}}" energy=-29.61321449279785 free_energy=-29.61321449279785 stress="-0.00838196836411953 -0.004276700783520937 0.005492865573614836 -0.004276700783520937 -0.013937178067862988 0.0014804936945438385 0.005492865573614836 0.0014804936945438385 0.01247540395706892" pbc="T T T"
Al       1.57767910       0.87033375       2.48321566        0       0.42145851      -0.10086083       0.75449427      -0.50599539       0.14215192       0.64867604
Al       0.00878682       1.84488741       5.00616581        1       0.94842532       0.04829631      -0.67234654      -0.28190884      -0.37569618       0.05942801
N        1.54733735       0.91884317       4.41695257        2      -0.50233559      -0.06173818      -0.86681651       0.26756763       0.16352415       0.34766790
N       -0.02491947       1.77881442       1.96659666        3      -0.86754829       0.11430271       0.78466878       0.52033675       0.07002025      -1.05577183
4
Lattice="3.128588 0.0 0.0 -1.5642939988088433 2.709436998432005 0.0 0.0 0.0 5.016955" Properties=species:S:1:pos:R:3:spacegroup_kinds:I:1:momenta:R:3:forces:R:3 spacegroup="P 1" unit_cell=conventional occupancy="_JSON {\"0\": {\"Al\": 1}, \"1\": {\"Al\": 1}, \"2\": {\"N\": 1}, \"3\": {\"N\": 1}}" energy=-29.557838439941406 free_energy=-29.557838439941406 stress="-0.016363801434636116 -0.002947739791125059 0.012903852388262749 -0.002947739791125059 -0.006207550410181284 0.001537612988613546 0.012903852388262749 0.001537612988613546 -0.0027148043736815453" pbc="T T T"
Al       1.59068813       0.88023426       2.52274587        0      -0.41625659       0.17887092       0.33160762      -0.90884197      -0.14031002      -0.36868072
Al       0.01872294       1.83477380       4.97781995        1       0.14973962      -0.20762968      -0.17578525      -0.72829813      -0.10046160       0.72652906
N        1.52039169       0.92489998       4.39464374        2       0.19754408       0.25939794       0.47781822       0.72475916      -0.09605231       0.71573907
N       -0.04216867       1.77342028       1.96745697        3       0.06897289      -0.23063914      -0.63364056       0.91238070       0.33682403      -1.07358778
4
Lattice="3.128588 0.0 0.0 -1.5642939988088433 2.709436998432005 0.0 0.0 0.0 5.016955" Properties=species:S:1:pos:R:3:spacegroup_kinds:I:1:momenta:R:3:forces:R:3 spacegroup="P 1" unit_cell=conventional occupancy="_JSON {\"0\": {\"Al\": 1}, \"1\": {\"Al\": 1}, \"2\": {\"N\": 1}, \"3\": {\"N\": 1}}" energy=-29.621110916137695 free_energy=-29.621110916137695 stress="-0.021500736474990845 0.00527648301795125 -0.0032675019465386868 0.00527648301795125 0.010657926090061665 0.0019249909091740847 -0.0032675019465386868 0.0019249909091740847 -0.0015899158315733075" pbc="T T T"
Al       1.54767647       0.89587762       2.50832859        0      -0.85810000       0.46896570      -1.00003034       0.39160588      -0.39029303      -0.15032396
Al       0.00665804       1.82067521       5.00342497        1      -0.72966949      -0.11082624       1.46536718      -0.00949677       0.22697118       0.34862536
N        1.57185929       0.94293294       4.45440723        2       0.62349867      -0.37686553       0.64593180      -0.01970057      -0.43335453      -0.83889782
N        0.01256033       1.75229419       1.88600535        3       0.96427080       0.01872610      -1.11126859      -0.36240861       0.59667647       0.64059687
4
Lattice="3.128588 0.0 0.0 -1.5642939988088433 2.709436998432005 0.0 0.0 0.0 5.016955" Properties=species:S:1:pos:R:3:spacegroup_kinds:I:1:momenta:R:3:forces:R:3 spacegroup="P 1" unit_cell=conventional occupancy="_JSON {\"0\": {\"Al\": 1}, \"1\": {\"Al\": 1}, \"2\": {\"N\": 1}, \"3\": {\"N\": 1}}" energy=-29.520856857299805 free_energy=-29.520856857299805 stress="-0.014047564007341862 0.011821017600595951 -0.014255566522479057 0.011821017600595951 -0.005614615045487881 0.009361433796584606 -0.014255566522479057 0.009361433796584606 -0.019571084529161453" pbc="T T T"
Al       1.52999427       0.91403918       2.46474572        0       0.09545159      -0.23101225      -1.18071353       1.21875489      -0.63577092       0.99290335
Al      -0.00890653       1.82180736       5.05208967        1       0.31216856      -0.10747548       0.45537679       0.39472789      -0.38378423      -1.12710404
N        1.59437713       0.88605552       4.45928985        2      -0.04798961      -0.53350254      -0.20523315      -0.40810537       0.35578886      -0.79021621
N        0.05384445       1.77207215       1.87145004        3      -0.35963055       0.87199032       0.93057002      -1.20537746       0.66376626       0.92441708
4
Lattice="3.128588 0.0 0.0 -1.5642939988088433 2.709436998432005 0.0 0.0 0.0 5.016955" Properties=species:S:1:pos:R:3:spacegroup_kinds:I:1:momenta:R:3:forces:R:3 spacegroup="P 1" unit_cell=conventional occupancy="_JSON {\"0\": {\"Al\": 1}, \"1\": {\"Al\": 1}, \"2\": {\"N\": 1}, \"3\": {\"N\": 1}}" energy=-29.61878776550293 free_energy=-29.61878776550293 stress="0.010117538273334503 -0.0018217788310721517 -0.001873050001449883 -0.0018217788310721517 -0.024783136323094368 0.0045911273919045925 -0.001873050001449883 0.0045911273919045925 2.6388621336081997e-05" pbc="T T T"
Al       1.53818033       0.90928019       2.47247632        0       0.23228520      -0.27447342       1.41733330       0.21201076       0.18702129       0.85530752
Al       0.01802691       1.81430743       5.03506516        1       0.60360855      -0.42930332      -1.11140799       0.03760036      -0.69444096      -0.55142564
N        1.59518017       0.85128051       4.42414646        2       0.09084573       0.02420734      -0.77345430      -0.19470096       0.84070528       0.01228106
N       -0.01452988       1.83034436       1.92467362        3      -0.92673949       0.67956945       0.46752903      -0.05491001      -0.33328530      -0.31616318
4
Lattice="3.128588 0.0 0.0 -1.5642939988088433 2.709436998432005 0.0 0.0 0.0 5.016955" Properties=species:S:1:pos:R:3:spacegroup_kinds:I:1:momenta:R:3:forces:R:3 spacegroup="P 1" unit_cell=conventional occupancy="_JSON {\"0\": {\"Al\": 1}, \"1\": {\"Al\": 1}, \"2\": {\"N\": 1}, \"3\": {\"N\": 1}}" energy=-29.623743057250977 free_energy=-29.623743057250977 stress="0.004300392232835293 -0.008672802709043026 0.0028822224121540785 -0.008672802709043026 -0.006943856831640005 -0.0044348398223519325 0.0028822224121540785 -0.0044348398223519325 -0.014838517643511295" pbc="T T T"
Al       1.54321203       0.89379621       2.53645986        0      -0.00705431      -0.41529136       0.79444992      -0.25250065       0.39303246      -0.87833607
Al       0.03580901       1.79893951       4.98957806        1       0.09337983      -0.29525097      -0.61191887      -0.16601400       0.14058074       0.62744510
N        1.59619756       0.90645098       4.40111853        2      -0.02189902       1.09350627       0.27120795      -0.08899555      -0.09593724       0.34910515
N       -0.05911263       1.83464215       1.91219259        3      -0.06442651      -0.38296394      -0.45373901       0.50751036      -0.43767619      -0.09821446
