4
Lattice="3.128588 0.0 0.0 -1.5642939988088433 2.709436998432005 0.0 0.0 0.0 5.016955" Properties=species:S:1:pos:R:3:spacegroup_kinds:I:1:forces:R:3 spacegroup="P 1" unit_cell=conventional occupancy="_JSON {\"0\": {\"Al\": 1}, \"1\": {\"Al\": 1}, \"2\": {\"N\": 1}, \"3\": {\"N\": 1}}" energy=-29.673717498779297 free_energy=-29.673717498779297 stress="-0.002225445816293359 -1.3440238717521424e-06 -9.514398158216864e-09 -1.3440238717521424e-06 -0.0022274935618042946 -2.462084047749613e-08 -9.514398158216864e-09 -2.462084047749613e-08 -0.005453761667013168" pbc="T T T"
Al       1.56429556       0.90314476       2.50490041        0      -0.00003486       0.00002113       0.00553149
Al      -0.00000156       1.80629224       5.01337791        1       0.00003493      -0.00001927       0.00552484
N        1.56429556       0.90314476       4.41849749        2      -0.00003694       0.00001949      -0.00553060
N       -0.00000156       1.80629224       1.91001999        3       0.00003683      -0.00002161      -0.00552559
