32
Lattice="6.17176593 0.0 0.0 0.0 8.01859859 0.0 0.0 0.0 13.03281824" Properties=species:S:1:pos:R:3:spacegroup_kinds:I:1:momenta:R:3:forces:R:3 spacegroup="P 1" unit_cell=conventional occupancy="_JSON {\"0\": {\"Li\": 1}, \"1\": {\"Li\": 1}, \"2\": {\"Li\": 1}, \"3\": {\"Li\": 1}, \"4\": {\"Li\": 1}, \"5\": {\"Li\": 1}, \"6\": {\"Li\": 1}, \"7\": {\"Li\": 1}, \"8\": {\"Li\": 1}, \"9\": {\"Li\": 1}, \"10\": {\"Li\": 1}, \"11\": {\"Li\": 1}, \"12\": {\"P\": 1}, \"13\": {\"P\": 1}, \"14\": {\"P\": 1}, \"15\": {\"P\": 1}, \"16\": {\"S\": 1}, \"17\": {\"S\": 1}, \"18\": {\"S\": 1}, \"19\": {\"S\": 1}, \"20\": {\"S\": 1}, \"21\": {\"S\": 1}, \"22\": {\"S\": 1}, \"23\": {\"S\": 1}, \"24\": {\"S\": 1}, \"25\": {\"S\": 1}, \"26\": {\"S\": 1}, \"27\": {\"S\": 1}, \"28\": {\"S\": 1}, \"29\": {\"S\": 1}, \"30\": {\"S\": 1}, \"31\": {\"S\": 1}}" energy=-140.31869506835938 free_energy=-140.31869506835938 stress="-0.007170636672526598 -6.073736180667311e-09 1.350387446308332e-08 -6.073736180667311e-09 -0.00825939979404211 -6.269500918421045e-09 1.350387446308332e-08 -6.269500918421045e-09 -0.005266308318823576" pbc="T T T"
Li       2.40329652       0.26860172       4.33400832        0       0.00000000       0.00000000       0.00000000      -0.02603525       0.00549102      -0.00432121
Li       3.76846941       7.74999687       8.69880992        1       0.00000000       0.00000000       0.00000000       0.02603633      -0.00549185       0.00432345
Li       5.48917948       7.74999687       2.18240080        2       0.00000000       0.00000000       0.00000000      -0.02603593      -0.00549080       0.00432181
Li       0.68258645       0.26860172      10.85041744        3       0.00000000       0.00000000       0.00000000       0.02603496       0.00549165      -0.00431939
Li       3.76846941       4.27790102       8.69880992        4       0.00000000       0.00000000       0.00000000       0.02603651       0.00549230       0.00432201
Li       2.40329652       3.74069757       4.33400832        5       0.00000000       0.00000000       0.00000000      -0.02603558      -0.00549171      -0.00432101
Li       0.68258645       3.74069757      10.85041744        6       0.00000000       0.00000000       0.00000000       0.02603581      -0.00549265      -0.00431976
Li       5.48917948       4.27790102       2.18240080        7       0.00000000       0.00000000       0.00000000      -0.02603577       0.00549068       0.00432206
Li       3.08588297       0.00000000       0.00000000        8       0.00000000       0.00000000       0.00000000      -0.00000059      -0.00000133      -0.00000130
Li       0.00000000       0.00000000       6.51640912        9       0.00000000       0.00000000       0.00000000      -0.00000019      -0.00000001       0.00000031
Li       3.08588297       4.00929929       0.00000000       10       0.00000000       0.00000000       0.00000000      -0.00000022       0.00000130      -0.00000027
Li       0.00000000       4.00929929       6.51640912       11       0.00000000       0.00000000       0.00000000      -0.00000013      -0.00000060      -0.00000063
P        0.94051010       2.00464965       1.16601784       12       0.00000000       0.00000000       0.00000000      -0.02067239       0.00000031       0.02376040
P        5.23125583       6.01394894      11.86680040       13       0.00000000       0.00000000       0.00000000       0.02066561       0.00000006      -0.02375845
P        4.02639307       6.01394894       5.35039128       14       0.00000000       0.00000000       0.00000000      -0.02066780       0.00000038      -0.02375671
P        2.14537286       2.00464965       7.68242696       15       0.00000000       0.00000000       0.00000000       0.02066859      -0.00000175       0.02375757
S        5.08970823       2.00464965       1.30575389       16       0.00000000       0.00000000       0.00000000      -0.25450611       0.00000052       0.01679012
S        1.08205770       6.01394894      11.72706435       17       0.00000000       0.00000000       0.00000000       0.25450855      -0.00000046      -0.01679177
S        2.00382526       6.01394894       5.21065523       18       0.00000000       0.00000000       0.00000000      -0.25450635       0.00000060      -0.01679140
S        4.16794067       2.00464965       7.82216301       19       0.00000000       0.00000000       0.00000000       0.25450161       0.00000079       0.01678973
S        1.68132889       2.00464965      12.25955363       20       0.00000000       0.00000000       0.00000000       0.10912250       0.00000005      -0.16719574
S        4.49043704       6.01394894       0.77326461       21       0.00000000       0.00000000       0.00000000      -0.10912050       0.00000019       0.16718149
S        4.76721186       6.01394894       7.28967373       22       0.00000000       0.00000000       0.00000000       0.10912081       0.00000014       0.16718006
S        1.40455407       2.00464965       5.74314451       23       0.00000000       0.00000000       0.00000000      -0.10911974       0.00000041      -0.16718079
S        1.67233151       0.29287049       2.00524453       24       0.00000000       0.00000000       0.00000000       0.13957815      -0.21272583       0.08709924
S        4.49943442       7.72572810      11.02757371       25       0.00000000       0.00000000       0.00000000      -0.13957508       0.21272489      -0.08709352
S        4.75821447       7.72572810       4.51116459       26       0.00000000       0.00000000       0.00000000       0.13957563       0.21272571      -0.08709091
S        1.41355146       0.29287049       8.52165365       27       0.00000000       0.00000000       0.00000000      -0.13957527      -0.21272103       0.08709118
S        4.49943442       4.30216979      11.02757371       28       0.00000000       0.00000000       0.00000000      -0.13957770      -0.21272574      -0.08709402
S        1.67233151       3.71642880       2.00524453       29       0.00000000       0.00000000       0.00000000       0.13957897       0.21272632       0.08709916
S        1.41355146       3.71642880       8.52165365       30       0.00000000       0.00000000       0.00000000      -0.13957568       0.21272175       0.08709143
S        4.75821447       4.30216979       4.51116459       31       0.00000000       0.00000000       0.00000000       0.13957623      -0.21272531      -0.08709306
32
Lattice="6.17176593 0.0 0.0 0.0 8.01859859 0.0 0.0 0.0 13.03281824" Properties=species:S:1:pos:R:3:spacegroup_kinds:I:1:momenta:R:3:forces:R:3 spacegroup="P 1" unit_cell=conventional occupancy="_JSON {\"0\": {\"Li\": 1}, \"1\": {\"Li\": 1}, \"2\": {\"Li\": 1}, \"3\": {\"Li\": 1}, \"4\": {\"Li\": 1}, \"5\": {\"Li\": 1}, \"6\": {\"Li\": 1}, \"7\": {\"Li\": 1}, \"8\": {\"Li\": 1}, \"9\": {\"Li\": 1}, \"10\": {\"Li\": 1}, \"11\": {\"Li\": 1}, \"12\": {\"P\": 1}, \"13\": {\"P\": 1}, \"14\": {\"P\": 1}, \"15\": {\"P\": 1}, \"16\": {\"S\": 1}, \"17\": {\"S\": 1}, \"18\": {\"S\": 1}, \"19\": {\"S\": 1}, \"20\": {\"S\": 1}, \"21\": {\"S\": 1}, \"22\": {\"S\": 1}, \"23\": {\"S\": 1}, \"24\": {\"S\": 1}, \"25\": {\"S\": 1}, \"26\": {\"S\": 1}, \"27\": {\"S\": 1}, \"28\": {\"S\": 1}, \"29\": {\"S\": 1}, \"30\": {\"S\": 1}, \"31\": {\"S\": 1}}" energy=-140.20709228515625 free_energy=-140.20709228515625 stress="-0.0023221480660140514 0.0002330966090084985 -0.00043781704152934253 0.0002330966090084985 -0.002868104726076126 0.0005365338874980807 -0.00043781704152934253 0.0005365338874980807 -0.0030558384023606777" pbc="T T T"
Li       2.39116991       0.31591639       4.41413064        0      -0.18046523       0.15662176       0.17484879       0.10296962      -0.12502010      -0.14812662
Li       3.79052413       7.82012937       8.76774416        1       0.00129215       0.13897759       0.16603748      -0.04844586      -0.18669499      -0.15098120
Li       5.45867678       7.76342220       2.12418386        2      -0.01142689       0.00563414      -0.18523780       0.02329529      -0.01292747       0.11932202
Li       0.65858943       0.23403023      10.87420876        3      -0.04837354      -0.35728175      -0.05868145       0.20408565       0.10271071      -0.05281125
Li       3.81687764       4.23701598       8.62171145        4       0.10466599       0.07401776      -0.29236326      -0.09016553       0.08493917       0.17134005
Li       2.40580105       3.75792306       4.34232798        5       0.05082759      -0.16323962      -0.02635590      -0.09498045      -0.05004364      -0.03540311
Li       0.69258538       3.73340990      10.87966122        6       0.28218198       0.15751117       0.26940780       0.02220433       0.02785639      -0.05920371
Li       5.43102104       4.26927057       2.21560196        7      -0.32093277      -0.02710097       0.16784837       0.11653899      -0.00304754      -0.13166746
Li       3.11301985      -0.02845143       0.00006527        8       0.13172113      -0.03861528       0.07643923      -0.10258771       0.10177720       0.02197457
Li      -0.03969168      -0.01136118       6.45141020        9      -0.10999721       0.17335673      -0.30916895       0.14732832       0.08709458       0.15211329
Li       3.07036983       4.09374878       0.09962502       10      -0.17760404       0.22111833       0.30443120       0.01491079      -0.09257386      -0.27203923
Li      -0.02306113       4.07776616       6.48000908       11       0.06184580       0.15364020      -0.08452553       0.20209129      -0.14798084       0.03346070
P        0.94435308       2.00511451       1.17367010       12       0.17776432       0.10540999       0.57358895      -0.20423082       0.12412640       0.00634783
P        5.21640130       5.99577333      11.86122963       13      -0.05516473      -0.45923476      -0.07667187       0.42231378      -0.14905044      -0.24816296
P        4.03293388       5.98431147       5.36820608       14       0.17917706      -0.63657710      -0.45390574       0.02485789       0.39167255      -0.56490803
P        2.16081554       2.02311918       7.70387816       15       0.12638136       0.32166740       0.25521761      -0.75363374      -0.03994262      -0.19815651
S        5.06436948       2.00865067       1.32917041       16      -0.16895873       0.09054358       0.33263069       0.15648292       0.03934249      -0.06750771
S        1.10889627       6.01558267      11.73732611       17       0.33904571       0.02765517       0.21148774      -0.36023945      -0.09782891       0.03538551
S        2.00268004       6.02865633       5.21513559       18       0.05736608       0.55987730       0.63633961      -0.02088788      -0.08494199       0.00746992
S        4.17085213       1.99399044       7.83091538       19      -0.00754240       0.25238920       0.14866809       0.41206634       0.06527752      -0.00851002
S        1.69827100       2.00454533      12.26870547       20       0.27208186       0.05073980       0.11277573       0.02608474      -0.05962929      -0.06530608
S        4.47370099       6.01071560       0.77689856       21      -0.02676183       0.00339890       0.39672144      -0.01792558       0.04370896      -0.01129438
S        4.78270829       5.98228130       7.29576235       22       0.29621540      -0.57053006      -0.04756668       0.05447391       0.14548489       0.12683845
S        1.39669416       1.99527318       5.73988299       23      -0.49392890      -0.22281180       0.19771102      -0.00735546       0.21331385       0.18907048
S        1.65951780       0.29416541       2.02718982       24       0.08871507      -0.01194918      -0.01072467       0.14761156      -0.11940513       0.07253137
S        4.53239606       7.73663676      11.00261017       25       0.36245128       0.06865592      -0.39782947      -0.20920691      -0.03566933       0.23108996
S        4.78252488       7.72709075       4.49295143       26       0.51184729       0.14718711      -0.29034544      -0.17479578      -0.33621797       0.13042900
S        1.40684966       0.28067358       8.50692367       27      -0.01703879      -0.39100116      -0.49035342      -0.01233255       0.09378497       0.07616355
S        4.47468456       4.27236868      11.01009701       28      -0.36691762      -0.36691705      -0.08103623       0.04238818       0.19423342       0.14812738
S        1.67701357       3.75099902       1.98740591       29      -0.29553314       0.14869488      -0.24919472      -0.13777725      -0.03350226       0.22258581
S        1.38961391       3.76889123       8.50275443       30      -0.63467485       0.90753838      -0.43949597       0.17386353      -0.23160672       0.00262818
S        4.76286911       4.26922257       4.47537639       31      -0.12825940      -0.51937665      -0.53069664      -0.05900248       0.09076004       0.26720038
32
Lattice="6.17176593 0.0 0.0 0.0 8.01859859 0.0 0.0 0.0 13.03281824" Properties=species:S:1:pos:R:3:spacegroup_kinds:I:1:momenta:R:3:forces:R:3 spacegroup="P 1" unit_cell=conventional occupancy="_JSON {\"0\": {\"Li\": 1}, \"1\": {\"Li\": 1}, \"2\": {\"Li\": 1}, \"3\": {\"Li\": 1}, \"4\": {\"Li\": 1}, \"5\": {\"Li\": 1}, \"6\": {\"Li\": 1}, \"7\": {\"Li\": 1}, \"8\": {\"Li\": 1}, \"9\": {\"Li\": 1}, \"10\": {\"Li\": 1}, \"11\": {\"Li\": 1}, \"12\": {\"P\": 1}, \"13\": {\"P\": 1}, \"14\": {\"P\": 1}, \"15\": {\"P\": 1}, \"16\": {\"S\": 1}, \"17\": {\"S\": 1}, \"18\": {\"S\": 1}, \"19\": {\"S\": 1}, \"20\": {\"S\": 1}, \"21\": {\"S\": 1}, \"22\": {\"S\": 1}, \"23\": {\"S\": 1}, \"24\": {\"S\": 1}, \"25\": {\"S\": 1}, \"26\": {\"S\": 1}, \"27\": {\"S\": 1}, \"28\": {\"S\": 1}, \"29\": {\"S\": 1}, \"30\": {\"S\": 1}, \"31\": {\"S\": 1}}" energy=-140.13111877441406 free_energy=-140.13111877441406 stress="0.0009732975158840418 -0.0004899778286926448 -0.0014880108647048473 -0.0004899778286926448 -0.00043221417581662536 -0.00024843632127158344 -0.0014880108647048473 -0.00024843632127158344 -0.0016364494804292917" pbc="T T T"
Li       2.37934469       0.36711211       4.39170329        0       0.04243361       0.24015942      -0.12508321       0.16310145      -0.18625593      -0.10674153
Li       3.74299496       7.84952536       8.71701798        1      -0.11136661      -0.15763250      -0.39657957       0.14142589      -0.21807058      -0.01703437
Li       5.43784052       7.77195238       2.08699440        2      -0.05415911       0.00768807      -0.04684310       0.05898055      -0.05018146       0.14035998
Li       0.73020187       0.17059176      10.85165142        3       0.28470424      -0.02224821      -0.15998899       0.06871049       0.22086367      -0.02949873
Li       3.75252226       4.31781493       8.65787721        4      -0.27516768       0.13026920       0.26622685       0.02556188      -0.08600813       0.04084623
Li       2.33220252       3.77740771       4.31933779        5      -0.38814551       0.37954952      -0.08616626       0.02832829      -0.01435153       0.00951424
Li       0.75367933       3.72986217      10.93898612        6       0.03231797      -0.15548624       0.13664693      -0.08919083      -0.02186969      -0.20445313
Li       5.42101346       4.23950927       2.17169867        7       0.04421208      -0.28531668      -0.03816472       0.03129830       0.06216660      -0.00641928
Li       3.14429259       0.00962153       0.00827441        8       0.16323124       0.12742709      -0.00920786      -0.01277495       0.06215512       0.02759438
Li      -0.03255172      -0.01073792       6.37782352        9       0.32740941      -0.07350278       0.10785097       0.18202011       0.05842513       0.35280216
Li       2.96838423       4.08992862       0.06859124       10      -0.23247511      -0.17213600      -0.43694693       0.15676509       0.04835583      -0.23141465
Li       0.07828440       4.08891598       6.40037296       11       0.57265612       0.03658443      -0.26971271      -0.00818032      -0.01794983       0.07021125
P        0.94506410       2.00327409       1.20090769       12      -0.39003936      -0.40453018       0.63941803      -0.30844077      -0.08581825      -0.23871462
P        5.24694861       5.96501273      11.85534581       13       0.09797506       0.14321044       0.14997877      -0.48889351       0.42687768       0.21102242
P        4.04812874       5.98229994       5.33397210       14      -0.01240971       0.32736160      -0.06830180      -0.06870073       0.08527483      -0.18009059
P        2.12481482       2.05482464       7.70701683       15      -0.57970511       0.45531006      -0.26600910       0.32728711      -0.30636457       0.13335255
S        5.05907291       2.01029725       1.32506815       16       0.15157492       0.08063536      -0.10885577       0.24603352      -0.03022840      -0.08624969
S        1.11294291       5.99607538      11.76358638       17      -0.11134104      -0.06175103      -0.10270635      -0.00789886      -0.15509757       0.03065576
S        2.00430195       6.05266799       5.23281732       18       0.10922339      -0.21849437      -0.30171197       0.06504149      -0.03544709      -0.07615997
S        4.20477059       2.01085442       7.83411767       19       0.43446362       0.18212192       0.13993202      -0.70928514       0.20426930      -0.02756978
S        1.73060268       2.00169737      12.28790937       20       0.22113278      -0.11425537       0.37325856      -0.08004767      -0.08306411       0.07373164
S        4.45943530       5.99806383       0.81566301       21      -0.27842381      -0.60673255       0.24487034       0.12607333      -0.02212624      -0.63035178
S        4.81263018       5.95184368       7.26456456       22       0.41297957      -0.10748435      -0.58958208       0.01353773       0.28636605       0.02025350
S        1.36589768       2.01975123       5.76071435       23      -0.19343106       0.56316815       0.06763153       0.01208752       0.12467355      -0.05680246
S        1.65251160       0.27397151       2.03119030       24      -0.19713608      -0.11457490      -0.10942135       0.12063350       0.00036205       0.07330990
S        4.54836192       7.76273232      11.02008972       25       0.26656098       0.45324507       1.14596241       0.06026333      -0.55183637       0.25220013
S        4.81690231       7.69920908       4.46661090       26       0.04934157      -0.55710035      -0.63491094      -0.29050019      -0.14870310      -0.05301196
S        1.40226349       0.26761582       8.50893372       27       0.24161065       0.20194447       0.06837366      -0.01237230       0.47661000      -0.13207281
S        4.47914625       4.25801590      11.01235843       28       0.24904781      -0.08282314      -0.37005966       0.14359185       0.19793281       0.14505070
S        1.64250272       3.75452994       2.00211011       29       0.06848137      -0.16684494       0.77518464      -0.02506749       0.04113983       0.23604479
S        1.36442034       3.81639395       8.47530386       30      -0.34819087       0.12737076       0.24177527       0.19861872      -0.39425451       0.16723122
S        4.73110861       4.23925876       4.46810439       31      -0.59736540      -0.15513203      -0.23685760      -0.06800740       0.11215507       0.09240450
32
Lattice="6.17176593 0.0 0.0 0.0 8.01859859 0.0 0.0 0.0 13.03281824" Properties=species:S:1:pos:R:3:spacegroup_kinds:I:1:momenta:R:3:forces:R:3 spacegroup="P 1" unit_cell=conventional occupancy="_JSON {\"0\": {\"Li\": 1}, \"1\": {\"Li\": 1}, \"2\": {\"Li\": 1}, \"3\": {\"Li\": 1}, \"4\": {\"Li\": 1}, \"5\": {\"Li\": 1}, \"6\": {\"Li\": 1}, \"7\": {\"Li\": 1}, \"8\": {\"Li\": 1}, \"9\": {\"Li\": 1}, \"10\": {\"Li\": 1}, \"11\": {\"Li\": 1}, \"12\": {\"P\": 1}, \"13\": {\"P\": 1}, \"14\": {\"P\": 1}, \"15\": {\"P\": 1}, \"16\": {\"S\": 1}, \"17\": {\"S\": 1}, \"18\": {\"S\": 1}, \"19\": {\"S\": 1}, \"20\": {\"S\": 1}, \"21\": {\"S\": 1}, \"22\": {\"S\": 1}, \"23\": {\"S\": 1}, \"24\": {\"S\": 1}, \"25\": {\"S\": 1}, \"26\": {\"S\": 1}, \"27\": {\"S\": 1}, \"28\": {\"S\": 1}, \"29\": {\"S\": 1}, \"30\": {\"S\": 1}, \"31\": {\"S\": 1}}" energy=-140.025634765625 free_energy=-140.025634765625 stress="-0.0055275787599384785 -0.00018332725448999554 -0.0003383191942702979 -0.00018332725448999554 -0.008391031995415688 0.0011823978275060654 -0.0003383191942702979 0.0011823978275060654 -0.00801888108253479" pbc="T T T"
Li       2.40352708       0.37047588       4.32343812        0       0.29345781      -0.17174648      -0.03934119       0.12488115      -0.07512055      -0.01306636
Li       3.77301816       7.75838737       8.55899323        1       0.26526538      -0.35963176      -0.38764874       0.09238698      -0.02956911       0.12283096
Li       5.48549942       7.72300560       2.00170204        2       0.24510466      -0.10788301      -0.20433776      -0.00722167      -0.05307362       0.24595094
Li       0.89056059       0.25772739      10.81819857        3       0.35616606       0.53284802      -0.02447434      -0.13994506      -0.10565946       0.15497996
Li       3.75568599       4.31458466       8.76486262        4       0.35770619       0.08273667       0.37135185       0.03680944      -0.02866274      -0.21720761
Li       2.27978267       3.86165974       4.25620054        5       0.06994503      -0.05625268      -0.27990855       0.11538897      -0.21706715       0.19095585
Li       0.70658507       3.69856998      10.89420286        6      -0.37440192       0.12497909      -0.36048608      -0.06737984       0.00221211      -0.06082924
Li       5.40321541       4.23912470       2.15561979        7      -0.03389163       0.12744397       0.10651693       0.05020778       0.06202215       0.06480930
Li       3.20938106       0.11912038       0.04004438        8      -0.02857987       0.42394698       0.29181506      -0.02942204      -0.02325549       0.09580891
Li       0.15021376       0.02140292       6.45789350        9       0.39219170       0.15478128       0.15529782      -0.20660385      -0.14735287      -0.13512692
Li       2.96542050       4.05104240      -0.20990521       10       0.06769979      -0.01091812      -0.74877811      -0.15014334       0.11881290       0.37436062
Li       0.24891425       4.15923515       6.34324783       11       0.31394844       0.39413697      -0.08066900      -0.20225555       0.15818189       0.03627549
P        0.89991447       1.98443546       1.23190328       12      -0.44129077      -0.10551509       0.19080072       0.57192397       0.07408947       0.01721884
P        5.22537912       6.00674797      11.91670119       13      -0.13895122       0.29280012       1.36650160       0.37191468      -0.49711818      -0.15852988
P        4.05219168       5.96733482       5.30122076       14       0.57277113      -0.07382800      -0.63097179       0.13738459       0.25540191      -0.23795934
P        2.12505548       2.08149767       7.71036105       15       0.75089664      -0.06758867       0.10682900       0.34859997       0.31285399      -0.36276025
S        5.06699196       2.01958334       1.31497895       16      -0.24712916      -0.02538800      -0.53411454      -0.53002489      -0.19966936      -0.05544154
S        1.10816018       5.96418945      11.77601413       17      -0.18891119      -0.24611096       0.38650449      -0.12787312      -0.02709325       0.02527271
S        2.02836703       6.03901601       5.19369200       18      -0.44824746       0.19098036      -0.61034838      -0.57560670       0.24960238       0.09215489
S        4.15979119       2.01088461       7.82881663       19      -0.95856064      -0.25831571      -0.06582009      -0.14544949       0.26260215       0.04020001
S        1.74639000       1.97912373      12.35820282       20       0.18395686      -0.53909558       1.01675181      -0.13317443       0.10214642      -0.46504021
S        4.44007288       5.95932525       0.79689377       21      -0.00856851      -0.54398815      -0.22850327      -0.13661455       0.03465745       0.05965311
S        4.83141967       5.98295405       7.20888177       22       0.11397646       0.78244641      -0.52112324       0.11278595       0.06846729       0.45835418
S        1.35806524       2.07853474       5.75902352       23      -0.23359224       1.12309608      -0.09546755       0.14790304      -0.07816080      -0.14209089
S        1.64305829       0.24569479       2.00729371       24       0.06033276      -0.72563620      -0.20506318       0.11062831      -0.13548389       0.19804682
S        4.59532547       7.74882399      11.11716408       25       0.58711472       0.05055199       0.97604378      -0.18480274       0.37085202      -0.48897907
S        4.82874249       7.64378316       4.41355241       26       0.44603246      -0.88938855      -0.75795853      -0.03163883       0.20153062       0.03053796
S        1.42223635       0.36087495       8.50307175       27       0.41345732       1.18629010      -0.53195071      -0.32329050      -0.60336494       0.28898606
S        4.48442149       4.27781557      11.02356040       28       0.32926825       0.29826072       0.28396148       0.21171474       0.19829908       0.02310343
S        1.62163453       3.70503647       2.06934413       29      -0.76145547      -0.69058612       0.68182933       0.00204076       0.11763510      -0.33827370
S        1.33514599       3.79643363       8.50879611       30      -0.55671883      -0.53001534       0.69003591       0.20722914      -0.00527673       0.20235884
S        4.65532995       4.23015626       4.45559564       31      -1.39899280      -0.36341039      -0.31727472       0.34964716      -0.36343873      -0.04655381
32
Lattice="6.17176593 0.0 0.0 0.0 8.01859859 0.0 0.0 0.0 13.03281824" Properties=species:S:1:pos:R:3:spacegroup_kinds:I:1:momenta:R:3:forces:R:3 spacegroup="P 1" unit_cell=conventional occupancy="_JSON {\"0\": {\"Li\": 1}, \"1\": {\"Li\": 1}, \"2\": {\"Li\": 1}, \"3\": {\"Li\": 1}, \"4\": {\"Li\": 1}, \"5\": {\"Li\": 1}, \"6\": {\"Li\": 1}, \"7\": {\"Li\": 1}, \"8\": {\"Li\": 1}, \"9\": {\"Li\": 1}, \"10\": {\"Li\": 1}, \"11\": {\"Li\": 1}, \"12\": {\"P\": 1}, \"13\": {\"P\": 1}, \"14\": {\"P\": 1}, \"15\": {\"P\": 1}, \"16\": {\"S\": 1}, \"17\": {\"S\": 1}, \"18\": {\"S\": 1}, \"19\": {\"S\": 1}, \"20\": {\"S\": 1}, \"21\": {\"S\": 1}, \"22\": {\"S\": 1}, \"23\": {\"S\": 1}, \"24\": {\"S\": 1}, \"25\": {\"S\": 1}, \"26\": {\"S\": 1}, \"27\": {\"S\": 1}, \"28\": {\"S\": 1}, \"29\": {\"S\": 1}, \"30\": {\"S\": 1}, \"31\": {\"S\": 1}}" energy=-139.79550170898438 free_energy=-139.79550170898438 stress="-0.006446090526878834 -0.0016835664864629507 0.0019711910281330347 -0.0016835664864629507 -0.007650061510503292 0.0007724338211119175 0.0019711910281330347 0.0007724338211119175 -0.008971168659627438" pbc="T T T"
Li       2.54278686       0.34012130       4.34998212        0       0.44788405       0.01355490      -0.06562717      -0.11262831       0.03864831      -0.05827234
Li       3.80081930       7.62505126       8.50918377        1      -0.20114169      -0.18789932       0.24465588      -0.17811467       0.44875619       0.32480437
Li       5.58893065       7.63099528       2.04633454        2       0.48885527      -0.25477624       0.51958854      -0.24920255       0.06388777       0.04316030
Li       0.93818115       0.32285064      10.82412845        3      -0.17714440      -0.19260389       0.12010796      -0.21052623      -0.26895085       0.04038683
Li       3.83881732       4.29901334       8.78359034        4       0.28734739      -0.23888904      -0.28055652      -0.03603305      -0.01333226      -0.18648222
Li       2.30840132       3.74418373       4.26016425        5       0.22695723      -0.33174956       0.34000147      -0.03173946       0.09413128       0.16970050
Li       0.58152141       3.71556783      10.81200034        6      -0.17256354       0.16911432       0.14485677       0.14475614      -0.09736663       0.16502851
Li       5.43655574       4.29323138       2.23985754        7       0.07056178       0.08346034       0.33125989      -0.06671307      -0.12036890      -0.11883973
Li       3.29087865       0.22323555       0.20019984        8       0.43357099       0.23205332       0.34314701       0.21632233      -0.03654371      -0.15559486
Li       0.15473137       0.05819821       6.40926885        9      -0.19449008      -0.15990675      -0.28372120      -0.12287886      -0.10336138      -0.05666730
Li       2.87543325       4.02969607      -0.24736436       10      -0.52675873      -0.07028202       0.52475063      -0.01603741       0.23031497       0.35406375
Li       0.28028650       4.37441584       6.36228052       11       0.06459352       0.71868419       0.05316597       0.03900358      -0.06078237       0.01987800
P        0.93197667       1.97629911       1.23810285       12       0.23137060       0.06180011      -0.28217108      -0.99140918      -0.20905739      -0.00868537
P        5.26891590       6.01250951      11.97233640       13       0.62175814       0.06664052       0.12714381      -0.35602424       0.00068812      -0.49600530
P        4.05101212       5.93319001       5.27092742       14      -0.74331356      -0.28569510      -0.45448150      -0.58315182      -0.18629719       0.12997654
P        2.15934131       2.12550720       7.65695109       15      -0.26567884       0.88150363      -0.73376967      -0.52108049      -0.18503916       0.20061304
S        5.02105245       2.04536301       1.25014793       16      -0.59196906       0.23312791      -0.90020362       0.56670785      -0.34131399       0.22300966
S        1.11073417       5.94331972      11.83421071       17       0.61822667      -0.04994614       0.75178120       0.32530928       0.03977462      -0.03855932
S        1.98125205       6.05788795       5.15012077       18      -0.11569303       0.46592851      -0.03388197       0.13606428       0.07474558       0.09618919