32
Lattice="6.17176593 0.0 0.0 0.0 8.01859859 0.0 0.0 0.0 13.03281824" Properties=species:S:1:pos:R:3:spacegroup_kinds:I:1:forces:R:3 spacegroup="P 1" unit_cell=conventional occupancy="_JSON {\"0\": {\"Li\": 1}, \"1\": {\"Li\": 1}, \"2\": {\"Li\": 1}, \"3\": {\"Li\": 1}, \"4\": {\"Li\": 1}, \"5\": {\"Li\": 1}, \"6\": {\"Li\": 1}, \"7\": {\"Li\": 1}, \"8\": {\"Li\": 1}, \"9\": {\"Li\": 1}, \"10\": {\"Li\": 1}, \"11\": {\"Li\": 1}, \"12\": {\"P\": 1}, \"13\": {\"P\": 1}, \"14\": {\"P\": 1}, \"15\": {\"P\": 1}, \"16\": {\"S\": 1}, \"17\": {\"S\": 1}, \"18\": {\"S\": 1}, \"19\": {\"S\": 1}, \"20\": {\"S\": 1}, \"21\": {\"S\": 1}, \"22\": {\"S\": 1}, \"23\": {\"S\": 1}, \"24\": {\"S\": 1}, \"25\": {\"S\": 1}, \"26\": {\"S\": 1}, \"27\": {\"S\": 1}, \"28\": {\"S\": 1}, \"29\": {\"S\": 1}, \"30\": {\"S\": 1}, \"31\": {\"S\": 1}}" energy=-140.31869506835938 free_energy=-140.31869506835938 stress="-0.007170636672526598 -6.073736180667311e-09 1.350387446308332e-08 -6.073736180667311e-09 -0.00825939979404211 -6.269500918421045e-09 1.350387446308332e-08 -6.269500918421045e-09 -0.005266308318823576" pbc="T T T"
Li       2.40329652       0.26860172       4.33400832        0      -0.02603525       0.00549102      -0.00432121
Li       3.76846941       7.74999687       8.69880992        1       0.02603633      -0.00549185       0.00432345
Li       5.48917948       7.74999687       2.18240080        2      -0.02603593      -0.00549080       0.00432181
Li       0.68258645       0.26860172      10.85041744        3       0.02603496       0.00549165      -0.00431939
Li       3.76846941       4.27790102       8.69880992        4       0.02603651       0.00549230       0.00432201
Li       2.40329652       3.74069757       4.33400832        5      -0.02603558      -0.00549171      -0.00432101
Li       0.68258645       3.74069757      10.85041744        6       0.02603581      -0.00549265      -0.00431976
Li       5.48917948       4.27790102       2.18240080        7      -0.02603577       0.00549068       0.00432206
Li       3.08588297       0.00000000       0.00000000        8      -0.00000059      -0.00000133      -0.00000130
Li       0.00000000       0.00000000       6.51640912        9      -0.00000019      -0.00000001       0.00000031
Li       3.08588297       4.00929929       0.00000000       10      -0.00000022       0.00000130      -0.00000027
Li       0.00000000       4.00929929       6.51640912       11      -0.00000013      -0.00000060      -0.00000063
P        0.94051010       2.00464965       1.16601784       12      -0.02067239       0.00000031       0.02376040
P        5.23125583       6.01394894      11.86680040       13       0.02066561       0.00000006      -0.02375845
P        4.02639307       6.01394894       5.35039128       14      -0.02066780       0.00000038      -0.02375671
P        2.14537286       2.00464965       7.68242696       15       0.02066859      -0.00000175       0.02375757
S        5.08970823       2.00464965       1.30575389       16      -0.25450611       0.00000052       0.01679012
S        1.08205770       6.01394894      11.72706435       17       0.25450855      -0.00000046      -0.01679177
S        2.00382526       6.01394894       5.21065523       18      -0.25450635       0.00000060      -0.01679140
S        4.16794067       2.00464965       7.82216301       19       0.25450161       0.00000079       0.01678973
S        1.68132889       2.00464965      12.25955363       20       0.10912250       0.00000005      -0.16719574
S        4.49043704       6.01394894       0.77326461       21      -0.10912050       0.00000019       0.16718149
S        4.76721186       6.01394894       7.28967373       22       0.10912081       0.00000014       0.16718006
S        1.40455407       2.00464965       5.74314451       23      -0.10911974       0.00000041      -0.16718079
S        1.67233151       0.29287049       2.00524453       24       0.13957815      -0.21272583       0.08709924
S        4.49943442       7.72572810      11.02757371       25      -0.13957508       0.21272489      -0.08709352
S        4.75821447       7.72572810       4.51116459       26       0.13957563       0.21272571      -0.08709091
S        1.41355146       0.29287049       8.52165365       27      -0.13957527      -0.21272103       0.08709118
S        4.49943442       4.30216979      11.02757371       28      -0.13957770      -0.21272574      -0.08709402
S        1.67233151       3.71642880       2.00524453       29       0.13957897       0.21272632       0.08709916
S        1.41355146       3.71642880       8.52165365       30      -0.13957568       0.21272175       0.08709143
S        4.75821447       4.30216979       4.51116459       31       0.13957623      -0.21272531      -0.08709306
