4
Lattice="3.128588 0.0 0.0 -1.5642939988088433 2.709436998432005 0.0 0.0 0.0 5.016955" Properties=species:S:1:pos:R:3:spacegroup_kinds:I:1:momenta:R:3:forces:R:3 spacegroup="P 1" unit_cell=conventional occupancy="_JSON {\"0\": {\"Al\": 1}, \"1\": {\"Al\": 1}, \"2\": {\"N\": 1}, \"3\": {\"N\": 1}}" energy=-29.623741149902344 free_energy=-29.623741149902344 stress="0.004300314467400312 -0.008672709576785564 0.0028819814324378967 -0.008672709576785564 -0.0069436621852219105 -0.004434570204466581 0.0028819814324378967 -0.004434570204466581 -0.014839237555861473" pbc="T T T"
Al       1.54321206       0.89379624       2.53645988        0      -0.00705390      -0.41529131       0.79444894      -0.25250429       0.39302793      -0.87834430
Al       0.03580901       1.79893951       4.98957810        1       0.09337931      -0.29525084      -0.61191998      -0.16601300       0.14058337       0.62745118
N        1.59619753       0.90645097       4.40111846        2      -0.02189821       1.09350646       0.27120881      -0.08899611      -0.09593977       0.34911045
N       -0.05911261       1.83464208       1.91219253        3      -0.06442719      -0.38296433      -0.45373771       0.50751317      -0.43767163      -0.09821726
