4
Lattice="3.128588 0.0 0.0 -1.5642939988088433 2.709436998432005 0.0 0.0 0.0 5.016955" Properties=species:S:1:pos:R:3:spacegroup_kinds:I:1:momenta:R:3:forces:R:3 spacegroup="P 1" unit_cell=conventional occupancy="_JSON {\"0\": {\"Al\": 1}, \"1\": {\"Al\": 1}, \"2\": {\"N\": 1}, \"3\": {\"N\": 1}}" energy=-29.673717498779297 free_energy=-29.673717498779297 stress="-0.002225189935415983 -1.2728723959298804e-06 -3.690817607093777e-08 -1.2728723959298804e-06 -0.002227429999038577 -1.2632876966733875e-09 -3.690817607093777e-08 -1.2632876966733875e-09 -0.005453671328723431" pbc="T T T"
Al       1.56429556       0.90314476       2.50490041        0       0.68448204       0.53670047       0.91071479      -0.00003365       0.00001979       0.00553083
Al      -0.00000156       1.80629224       5.01337791        1       0.31075784       0.39520501      -1.87833745       0.00003401      -0.00002004       0.00552492
N        1.56429556       0.90314476       4.41849749        2      -0.23293981      -0.79739853      -0.40745139      -0.00003600       0.00002045      -0.00553117
N       -0.00000156       1.80629224       1.91001999        3      -0.76230006      -0.13450696       1.37507406       0.00003560      -0.00002027      -0.00552479
4
Lattice="3.128588 0.0 0.0 -1.5642939988088433 2.709436998432005 0.0 0.0 0.0 5.016955" Properties=species:S:1:pos:R:3:spacegroup_kinds:I:1:momenta:R:3:forces:R:3 spacegroup="P 1" unit_cell=conventional occupancy="_JSON {\"0\": {\"Al\": 1}, \"1\": {\"Al\": 1}, \"2\": {\"N\": 1}, \"3\": {\"N\": 1}}" energy=-29.43359375 free_energy=-29.43359375 stress="-0.013773410581052303 -0.01644638366997242 0.012948793359100819 -0.01644638366997242 -0.023968789726495743 0.009969744831323624 0.012948793359100819 0.009969744831323624 -0.012059470638632774" pbc="T T T"
Al       1.60246141       0.92231284       2.54150849        0       0.57498228      -0.13491986       1.02882476      -1.31301308      -0.49033451      -0.87831348
Al       0.00328789       1.81111140       4.94718774        1      -0.44725806       0.00118070      -1.07867312      -0.30154318      -0.59423339       1.18011844
N        1.53678587       0.85870779       4.38099594        2       0.14052036      -0.46066741       0.20203870       0.28490922       0.67984593       1.25553703
N       -0.05228246       1.80432671       2.00436660        3      -0.26824460       0.59440661      -0.15219029       1.32964730       0.40472180      -1.55734181
4
Lattice="3.128588 0.0 0.0 -1.5642939988088433 2.709436998432005 0.0 0.0 0.0 5.016955" Properties=species:S:1:pos:R:3:spacegroup_kinds:I:1:momenta:R:3:forces:R:3 spacegroup="P 1" unit_cell=conventional occupancy="_JSON {\"0\": {\"Al\": 1}, \"1\": {\"Al\": 1}, \"2\": {\"N\": 1}, \"3\": {\"N\": 1}}" energy=-29.567258834838867 free_energy=-29.567258834838867 stress="0.012915796600282192 0.0017025881679728627 0.0035793641582131386 0.0017025881679728627 -0.02585696615278721 -0.005369155667722225 0.0035793641582131386 -0.005369155667722225 -0.011435248889029026" pbc="T T T"
Al       1.59598186       0.90138486       2.55101265        0      -0.85003993      -0.64755182      -0.41676271      -0.33522680       0.74370503      -1.26921332
Al      -0.01311800       1.79082858       4.96769658        1      -0.24557028      -0.74327809       1.65595777      -0.18280244      -0.17026761       1.21499753
N        1.52960409       0.86779351       4.41996342        2       0.16413078       0.60763601       0.63654588       0.31887710       0.39321426      -0.09056948
N       -0.00060097       1.87475190       1.90756519        3       0.93147941       0.78319393      -1.87574086       0.19915213      -0.96665168       0.14478523
4
Lattice="3.128588 0.0 0.0 -1.5642939988088433 2.709436998432005 0.0 0.0 0.0 5.016955" Properties=species:S:1:pos:R:3:spacegroup_kinds:I:1:momenta:R:3:forces:R:3 spacegroup="P 1" unit_cell=conventional occupancy="_JSON {\"0\": {\"Al\": 1}, \"1\": {\"Al\": 1}, \"2\": {\"N\": 1}, \"3\": {\"N\": 1}}" energy=-29.406274795532227 free_energy=-29.406274795532227 stress="0.010688792914152145 0.016498228535056114 -0.008163979277014732 0.016498228535056114 -0.009423341602087021 -0.01555396057665348 -0.008163979277014732 -0.01555396057665348 -0.06125415116548538" pbc="T T T"
Al       1.53423928       0.87298461       2.51007453        0      -1.60925399       0.09619221      -1.03262305       0.74608850       1.00298619       0.03482484
Al      -0.01349003       1.78470221       5.05709165        1       0.21561249      -0.04339780       1.72443243       0.02271260       0.40732947      -1.66437006
N        1.55208975       0.92225134       4.42203510        2       0.38659379       0.63935799      -0.93002912       0.04495779      -0.39009720      -0.56986129
N        0.09667396       1.88681818       1.81230436        3       1.00704768      -0.69215233       0.23821982      -0.81375897      -1.02021861       2.19940639
4
Lattice="3.128588 0.0 0.0 -1.5642939988088433 2.709436998432005 0.0 0.0 0.0 5.016955" Properties=species:S:1:pos:R:3:spacegroup_kinds:I:1:momenta:R:3:forces:R:3 spacegroup="P 1" unit_cell=conventional occupancy="_JSON {\"0\": {\"Al\": 1}, \"1\": {\"Al\": 1}, \"2\": {\"N\": 1}, \"3\": {\"N\": 1}}" energy=-29.201902389526367 free_energy=-29.201902389526367 stress="-0.026441028341650963 0.038155630230903625 -0.03138241171836853 0.038155630230903625 -0.0048774899914860725 0.001543748308904469 -0.03138241171836853 0.001543748308904469 -0.05181996524333954" pbc="T T T"
Al       1.49382402       0.87740194       2.48150490        0      -0.08661661      -0.02748773       0.25595553       2.48428202      -0.46187007       1.22611594
Al      -0.02076736       1.79337851       5.08843294        1       0.00716729       0.60209079      -1.27068272       0.64723080       0.57433331      -2.36004019
N        1.60157222       0.96971684       4.33361321        2       0.49437284       0.53651002      -0.17473383      -0.53882354      -0.70145249       1.74608922
N        0.13924906       1.81421452       1.89535170        3      -0.41492355      -1.11111305       1.18946119      -2.59268951       0.58898926      -0.61216515
4
Lattice="3.128588 0.0 0.0 -1.5642939988088433 2.709436998432005 0.0 0.0 0.0 5.016955" Properties=species:S:1:pos:R:3:spacegroup_kinds:I:1:momenta:R:3:forces:R:3 spacegroup="P 1" unit_cell=conventional occupancy="_JSON {\"0\": {\"Al\": 1}, \"1\": {\"Al\": 1}, \"2\": {\"N\": 1}, \"3\": {\"N\": 1}}" energy=-29.57462501525879 free_energy=-29.57462501525879 stress="-0.023618152365088463 -0.014321187511086464 -0.011127940379083157 -0.014321187511086464 0.015030200593173504 -0.002854646649211645 -0.011127940379083157 -0.002854646649211645 -0.014440375380218029" pbc="T T T"
Al       1.53421961       0.88369271       2.53780583        0       1.55944051       0.36820857       1.55971032       0.29264116      -0.24000448      -0.91367984
Al      -0.00048006       1.82107764       4.98837342        1       1.01688571       0.86374327      -2.47525451       0.94369388       0.52251726       0.78486669
N        1.63583967       0.96584647       4.40663186        2      -0.31021910      -0.52489330       1.27117399      -1.15103579      -0.78907311       0.05687846
N       -0.01177523       1.75252282       1.90648732        3      -2.26610721      -0.70705850      -0.35562971      -0.08529920       0.50656056       0.07193409
4
Lattice="3.128588 0.0 0.0 -1.5642939988088433 2.709436998432005 0.0 0.0 0.0 5.016955" Properties=species:S:1:pos:R:3:spacegroup_kinds:I:1:momenta:R:3:forces:R:3 spacegroup="P 1" unit_cell=conventional occupancy="_JSON {\"0\": {\"Al\": 1}, \"1\": {\"Al\": 1}, \"2\": {\"N\": 1}, \"3\": {\"N\": 1}}" energy=-29.3720703125 free_energy=-29.3720703125 stress="-0.005629847291857004 -0.0187195036560297 0.015849441289901733 -0.0187195036560297 -0.03227303549647331 0.01721229963004589 0.015849441289901733 0.01721229963004589 -0.007298149634152651" pbc="T T T"
Al       1.57072833       0.88046442       2.56331975        0      -0.00039263      -0.37629531      -0.57844075      -1.34386456      -0.44065794      -1.50707769
Al       0.05055072       1.86456081       4.94968571        1       0.52727011       0.77034125       1.04960235      -0.49128699      -1.36433983       1.82584763
N        1.58204798       0.88176658       4.44992393        2      -0.27832242      -1.02263351      -0.55459299       0.15003359       1.16376340      -0.85894763
N       -0.12661086       1.75915459       1.88869867        3      -0.24855514       0.62858758       0.08343141       1.68511796       0.64123470       0.54017764
4
Lattice="3.128588 0.0 0.0 -1.5642939988088433 2.709436998432005 0.0 0.0 0.0 5.016955" Properties=species:S:1:pos:R:3:spacegroup_kinds:I:1:momenta:R:3:forces:R:3 spacegroup="P 1" unit_cell=conventional occupancy="_JSON {\"0\": {\"Al\": 1}, \"1\": {\"Al\": 1}, \"2\": {\"N\": 1}, \"3\": {\"N\": 1}}" energy=-29.596925735473633 free_energy=-29.596925735473633 stress="0.015976473689079285 -0.004506328143179417 0.006018693093210459 -0.004506328143179417 -0.02549932710826397 -0.00459706038236618 0.006018693093210459 -0.00459706038236618 -0.010013952851295471" pbc="T T T"
Al       1.53284805       0.86390066       2.51395076        0      -1.59464503      -0.16469633      -1.74991329      -0.27820390       0.89915836      -0.15420488
Al       0.06317842       1.83227865       5.00948383        1       0.38439978      -1.80666644       1.59449940      -0.58708543      -0.41271675       0.16725034
N        1.58572477       0.89623787       4.41422578        2       0.14193199       1.12964987      -0.09119171       0.25703990       0.38076690       0.00228060
N       -0.08152107       1.83862423       1.90381444        3       1.06831320       0.84171291       0.24660557       0.60824919      -0.86720848      -0.01532600
4
Lattice="3.128588 0.0 0.0 -1.5642939988088433 2.709436998432005 0.0 0.0 0.0 5.016955" Properties=species:S:1:pos:R:3:spacegroup_kinds:I:1:momenta:R:3:forces:R:3 spacegroup="P 1" unit_cell=conventional occupancy="_JSON {\"0\": {\"Al\": 1}, \"1\": {\"Al\": 1}, \"2\": {\"N\": 1}, \"3\": {\"N\": 1}}" energy=-29.462553024291992 free_energy=-29.462553024291992 stress="-0.005697122309356928 0.010849430225789547 -0.0039066132158041 0.010849430225789547 -0.01913400925695896 -0.012703197076916695 -0.0039066132158041 -0.012703197076916695 -0.0118715213611722" pbc="T T T"
Al       1.48347328       0.88264396       2.44527930        0      -0.30454514       1.01149504      -0.60004511       0.88393086       0.95768493       1.70777035
Al       0.06164409       1.77681257       5.07306073        1      -0.86715277      -0.75617416       0.43048897      -0.30080560       0.71655333      -1.72280049
N        1.61717711       0.94947188       4.40498426        2       0.38645868       0.04830118       0.18623270      -0.07234055      -0.67486042       0.48910764
N       -0.01486932       1.85626148       1.92266701        3       0.78523920      -0.30362204      -0.01667658      -0.51078498      -0.99937773      -0.47407740
4
Lattice="3.128588 0.0 0.0 -1.5642939988088433 2.709436998432005 0.0 0.0 0.0 5.016955" Properties=species:S:1:pos:R:3:spacegroup_kinds:I:1:momenta:R:3:forces:R:3 spacegroup="P 1" unit_cell=conventional occupancy="_JSON {\"0\": {\"Al\": 1}, \"1\": {\"Al\": 1}, \"2\": {\"N\": 1}, \"3\": {\"N\": 1}}" energy=-29.518747329711914 free_energy=-29.518747329711914 stress="-0.02337069995701313 0.006539957597851753 -0.016098231077194214 0.006539957597851753 0.00669745821505785 -0.00048240384785458446 -0.016098231077194214 -0.00048240384785458446 -0.022161373868584633" pbc="T T T"
Al       1.50607637       0.94974319       2.46463698        0       1.15921332       0.62635203       1.50689883       1.24247634      -0.60704583       1.15697360
Al       0.01335470       1.75088039       5.06242875        1      -0.91111990       0.14825298      -0.88962589       0.51474780       0.69610542      -1.43088973
N        1.62637957       0.90489622       4.42127855        2      -0.14223580      -0.64065104       0.21498356      -0.71771979      -0.51824135      -0.07984690
N        0.02538011       1.82158367       1.88963026        3      -0.10585761      -0.13395394      -0.83225660      -1.03950441       0.42918187       0.35376325
4
Lattice="3.128588 0.0 0.0 -1.5642939988088433 2.709436998432005 0.0 0.0 0.0 5.016955" Properties=species:S:1:pos:R:3:spacegroup_kinds:I:1:momenta:R:3:forces:R:3 spacegroup="P 1" unit_cell=conventional occupancy="_JSON {\"0\": {\"Al\": 1}, \"1\": {\"Al\": 1}, \"2\": {\"N\": 1}, \"3\": {\"N\": 1}}" energy=-29.60500717163086 free_energy=-29.60500717163086 stress="0.0015957800205796957 -0.006785842124372721 -0.0030954491812735796 -0.006785842124372721 0.001780745922587812 0.0017244027694687247 -0.0030954491812735796 0.0017244027694687247 -0.02311384491622448" pbc="T T T"
Al       1.56693924       0.93861030       2.54470909        0       1.44875350      -0.98943835       1.48437355      -0.01659535      -0.29131308      -1.20300889
Al      -0.01304568       1.78057347       4.99752454        1       0.01689824       1.11024969      -1.70730020       0.38438684       0.02358175       0.50760537
N        1.58384198       0.87104968       4.42155573        2      -0.67927495      -0.02704950      -0.19037087      -0.39236885       0.15177858      -0.39792407
N        0.00122214       1.81989283       1.85992054        3      -0.78637674      -0.09376179       0.41329747       0.02457739       0.11595298       1.09332776
4
Lattice="3.128588 0.0 0.0 -1.5642939988088433 2.709436998432005 0.0 0.0 0.0 5.016955" Properties=species:S:1:pos:R:3:spacegroup_kinds:I:1:momenta:R:3:forces:R:3 spacegroup="P 1" unit_cell=conventional occupancy="_JSON {\"0\": {\"Al\": 1}, \"1\": {\"Al\": 1}, \"2\": {\"N\": 1}, \"3\": {\"N\": 1}}" energy=-29.470205307006836 free_energy=-29.470205307006836 stress="0.0032032825984060764 -0.017801474779844284 0.011838355101644993 -0.017801474779844284 -0.04134904593229294 0.007359921932220459 0.011838355101644993 0.007359921932220459 -0.0051603964529931545" pbc="T T T"
Al       1.62755628       0.89950078       2.54516752        0       1.04970793      -0.99981844      -0.80202873      -1.41065204       0.15933129      -0.91778862
Al      -0.00757057       1.81703572       4.95606284        1      -0.03758055       0.11959841      -0.16512835      -0.26242563      -0.84351587       1.41445613
N        1.52756230       0.85151203       4.42065488        2      -0.42752123       0.29023068      -0.07965756       0.31765735       0.98894644      -0.00115365
N       -0.06966665       1.84442116       1.93994535        3      -0.58460608       0.58998936       1.04681464       1.35542035      -0.30476177      -0.49551350
4
Lattice="3.128588 0.0 0.0 -1.5642939988088433 2.709436998432005 0.0 0.0 0.0 5.016955" Properties=species:S:1:pos:R:3:spacegroup_kinds:I:1:momenta:R:3:forces:R:3 spacegroup="P 1" unit_cell=conventional occupancy="_JSON {\"0\": {\"Al\": 1}, \"1\": {\"Al\": 1}, \"2\": {\"N\": 1}, \"3\": {\"N\": 1}}" energy=-29.452985763549805 free_energy=-29.452985763549805 stress="-0.013225049711763859 -0.023750064894557 0.007911482825875282 -0.023750064894557 -0.047931794077157974 -0.007333289831876755 0.007911482825875282 -0.007333289831876755 0.02863301709294319" pbc="T T T"
Al       1.63184040       0.85684031       2.46693552        0      -0.97589034      -0.55899520      -1.34838350      -1.39010620       1.11026108       1.17303383
Al      -0.02377747       1.82170280       4.98999597        1      -0.28018879       0.45883520       1.28013513      -0.08532336       0.08283238       0.34697312
N        1.52792701       0.92957750       4.44479005        2       0.11446536       0.97873251       0.08012522       0.22035983      -0.17398554       0.05599177
N       -0.04718870       1.83921500       2.00086012        3       1.14161383      -0.87857252      -0.01187685       1.25506949      -1.01910782      -1.57599878
4
Lattice="3.128588 0.0 0.0 -1.5642939988088433 2.709436998432005 0.0 0.0 0.0 5.016955" Properties=species:S:1:pos:R:3:spacegroup_kinds:I:1:momenta:R:3:forces:R:3 spacegroup="P 1" unit_cell=conventional occupancy="_JSON {\"0\": {\"Al\": 1}, \"1\": {\"Al\": 1}, \"2\": {\"N\": 1}, \"3\": {\"N\": 1}}" energy=-29.536317825317383 free_energy=-29.536317825317383 stress="-0.01985752396285534 0.013828895054757595 -0.005717345979064703 0.013828895054757595 -0.0031639474909752607 -0.0016710137715563178 -0.005717345979064703 -0.0016710137715563178 -0.006260421592742205" pbc="T T T"
Al       1.56291508       0.86348349       2.43836899        0      -1.44558826       0.38889062       0.34074918       0.67285752       0.11609466       1.45909405
Al      -0.01834144       1.83613135       5.05736568        1       0.19731558      -0.00921546       1.04742204       0.06595244       0.15003668      -1.19267035
N        1.54726700       0.95741149       4.47045639        2      -0.01024036       0.05685029       0.14844022       0.09761406      -0.44421035      -0.65174419
N        0.05576965       1.77068663       1.90062732        3       1.25851309      -0.43652547      -1.53661141      -0.83642399       0.17807892       0.38532072
4
Lattice="3.128588 0.0 0.0 -1.5642939988088433 2.709436998432005 0.0 0.0 0.0 5.016955" Properties=species:S:1:pos:R:3:spacegroup_kinds:I:1:momenta:R:3:forces:R:3 spacegroup="P 1" unit_cell=conventional occupancy="_JSON {\"0\": {\"Al\": 1}, \"1\": {\"Al\": 1}, \"2\": {\"N\": 1}, \"3\": {\"N\": 1}}" energy=-29.5310001373291 free_energy=-29.5310001373291 stress="-0.0182940773665905 0.0157075896859169 -0.01160769909620285 0.0157075896859169 0.003148021874949336 0.004605649039149284 -0.01160769909620285 0.004605649039149284 -0.0172588974237442" pbc="T T T"
Al       1.54701074       0.87273545       2.46070914        0       0.71855679      -0.11584368       0.49435299       1.07476771      -0.28505906       1.06925380
Al      -0.01761627       1.84389393       5.05391123        1       0.19346461       0.17720419      -0.69190052       0.23187715      -0.07941872      -1.16824973
N        1.56395351       0.94331123       4.45961398        2       0.32487414      -0.12409437      -0.51346187      -0.11547158      -0.20503333      -0.72920281
N        0.06831351       1.75176769       1.87546336        3      -1.23689553       0.06273384       0.71100939      -1.19117320       0.56951118       0.82819861
4
Lattice="3.128588 0.0 0.0 -1.5642939988088433 2.709436998432005 0.0 0.0 0.0 5.016955" Properties=species:S:1:pos:R:3:spacegroup_kinds:I:1:momenta:R:3:forces:R:3 spacegroup="P 1" unit_cell=conventional occupancy="_JSON {\"0\": {\"Al\": 1}, \"1\": {\"Al\": 1}, \"2\": {\"N\": 1}, \"3\": {\"N\": 1}}" energy=-29.61321258544922 free_energy=-29.61321258544922 stress="-0.008381564170122147 -0.004276682157069445 0.005492938682436943 -0.004276682157069445 -0.01393703743815422 0.0014804229140281677 0.005492938682436943 0.0014804229140281677 0.012475398369133472" pbc="T T T"
Al       1.57767907       0.87033378       2.48321563        0       0.42145919      -0.10085951       0.75449464      -0.50598800       0.14215276       0.64867663
Al       0.00878683       1.84488738       5.00616581        1       0.94842533       0.04829670      -0.67234838      -0.28191048      -0.37569630       0.05942773
N        1.54733735       0.91884312       4.41695262        2      -0.50233577      -0.06173864      -0.86681582       0.26756802       0.16352420       0.34766692
N       -0.02491942       1.77881445       1.96659663        3      -0.86754872       0.11430142       0.78466953       0.52033037       0.07001925      -1.05577135
4
Lattice="3.128588 0.0 0.0 -1.5642939988088433 2.709436998432005 0.0 0.0 0.0 5.016955" Properties=species:S:1:pos:R:3:spacegroup_kinds:I:1:momenta:R:3:forces:R:3 spacegroup="P 1" unit_cell=conventional occupancy="_JSON {\"0\": {\"Al\": 1}, \"1\": {\"Al\": 1}, \"2\": {\"N\": 1}, \"3\": {\"N\": 1}}" energy=-29.55784034729004 free_energy=-29.55784034729004 stress="-0.016363738104701042 -0.0029475674964487553 0.012903780676424503 -0.0029475674964487553 -0.006207839120179415 0.001537561183795333 0.012903780676424503 0.001537561183795333 -0.0027148884255439043" pbc="T T T"
Al       1.59068814       0.88023433       2.52274588        0      -0.41625536       0.17887084       0.33160878      -0.90884531      -0.14031149      -0.36867848
Al       0.01872293       1.83477377       4.97781988        1       0.14973927      -0.20763026      -0.17578653      -0.72829819      -0.10046305       0.72652715
N        1.52039171       0.92489992       4.39464380        2       0.19754412       0.25939861       0.47781783       0.72475964      -0.09604950       0.71573937
N       -0.04216869       1.77342025       1.96745699        3       0.06897202      -0.23063923      -0.63364009       0.91238391       0.33682385      -1.07358789
4
Lattice="3.128588 0.0 0.0 -1.5642939988088433 2.709436998432005 0.0 0.0 0.0 5.016955" Properties=species:S:1:pos:R:3:spacegroup_kinds:I:1:momenta:R:3:forces:R:3 spacegroup="P 1" unit_cell=conventional occupancy="_JSON {\"0\": {\"Al\": 1}, \"1\": {\"Al\": 1}, \"2\": {\"N\": 1}, \"3\": {\"N\": 1}}" energy=-29.621112823486328 free_energy=-29.621112823486328 stress="-0.0215007197111845 0.005276496056467295 -0.003267361083999276 0.005276496056467295 0.010657877661287785 0.001924919430166483 -0.003267361083999276 0.001924919430166483 -0.0015898457495495677" pbc="T T T"
Al       1.54767650       0.89587765       2.50832863        0      -0.85810038       0.46896481      -1.00003104       0.39160311      -0.39029121      -0.15032531
Al       0.00665802       1.82067516       5.00342489        1      -0.72966988      -0.11082640       1.46536816      -0.00949885       0.22696900       0.34862608
N        1.57185933       0.94293293       4.45440724        2       0.62349874      -0.37686535       0.64593119      -0.01969732      -0.43335211      -0.83889818
N        0.01256029       1.75229420       1.88600541        3       0.96427157       0.01872692      -1.11126829      -0.36240679       0.59667450       0.64059752
4
Lattice="3.128588 0.0 0.0 -1.5642939988088433 2.709436998432005 0.0 0.0 0.0 5.016955" Properties=species:S:1:pos:R:3:spacegroup_kinds:I:1:momenta:R:3:forces:R:3 spacegroup="P 1" unit_cell=conventional occupancy="_JSON {\"0\": {\"Al\": 1}, \"1\": {\"Al\": 1}, \"2\": {\"N\": 1}, \"3\": {\"N\": 1}}" energy=-29.520856857299805 free_energy=-29.520856857299805 stress="-0.014047525823116302 0.011821109801530838 -0.014255632646381855 0.011821109801530838 -0.005614632274955511 0.009361517615616322 -0.014255632646381855 0.009361517615616322 -0.01957109570503235" pbc="T T T"
Al       1.52999427       0.91403918       2.46474573        0       0.09545094      -0.23101293      -1.18071366       1.21875858      -0.63577461       0.99290287
Al      -0.00890655       1.82180733       5.05208967        1       0.31216928      -0.10747479       0.45537887       0.39472762      -0.38378564      -1.12710452
N        1.59437713       0.88605549       4.45928982        2      -0.04799045      -0.53350282      -0.20523323      -0.40810606       0.35579148      -0.79021478
N        0.05384451       1.77207221       1.87145003        3      -0.35962974       0.87199052       0.93056808      -1.20538020       0.66376883       0.92441642
4
Lattice="3.128588 0.0 0.0 -1.5642939988088433 2.709436998432005 0.0 0.0 0.0 5.016955" Properties=species:S:1:pos:R:3:spacegroup_kinds:I:1:momenta:R:3:forces:R:3 spacegroup="P 1" unit_cell=conventional occupancy="_JSON {\"0\": {\"Al\": 1}, \"1\": {\"Al\": 1}, \"2\": {\"N\": 1}, \"3\": {\"N\": 1}}" energy=-29.61878776550293 free_energy=-29.61878776550293 stress="0.010117745026946068 -0.001821923884563148 -0.0018730090232566 -0.001821923884563148 -0.024783290922641754 0.0045911408960819244 -0.0018730090232566 0.0045911408960819244 2.655400567164179e-05" pbc="T T T"
Al       1.53818033       0.90928018       2.47247634        0       0.23228584      -0.27447274       1.41733365       0.21201336       0.18702419       0.85530984
Al       0.01802691       1.81430742       5.03506521        1       0.60360862      -0.42930306      -1.11140756       0.03760118      -0.69444203      -0.55142832
N        1.59518013       0.85128048       4.42414642        2       0.09084558       0.02420758      -0.77345494      -0.19470304       0.84070611       0.01228309
N       -0.01452981       1.83034439       1.92467351        3      -0.92674004       0.67956818       0.46752895      -0.05491157      -0.33328819      -0.31616461
4
Lattice="3.128588 0.0 0.0 -1.5642939988088433 2.709436998432005 0.0 0.0 0.0 5.016955" Properties=species:S:1:pos:R:3:spacegroup_kinds:I:1:momenta:R:3:forces:R:3 spacegroup="P 1" unit_cell=conventional occupancy="_JSON {\"0\": {\"Al\": 1}, \"1\": {\"Al\": 1}, \"2\": {\"N\": 1}, \"3\": {\"N\": 1}}" energy=-29.623741149902344 free_energy=-29.623741149902344 stress="0.004300314467400312 -0.008672709576785564 0.0028819814324378967 -0.008672709576785564 -0.0069436621852219105 -0.004434570204466581 0.0028819814324378967 -0.004434570204466581 -0.014839237555861473" pbc="T T T"
Al       1.54321206       0.89379624       2.53645988        0      -0.00705390      -0.41529131       0.79444894      -0.25250429       0.39302793      -0.87834430
Al       0.03580901       1.79893951       4.98957810        1       0.09337931      -0.29525084      -0.61191998      -0.16601300       0.14058337       0.62745118
N        1.59619753       0.90645097       4.40111846        2      -0.02189821       1.09350646       0.27120881      -0.08899611      -0.09593977       0.34911045
N       -0.05911261       1.83464208       1.91219253        3      -0.06442719      -0.38296433      -0.45373771       0.50751317      -0.43767163      -0.09821726
