4
Lattice="3.128588 0.0 0.0 -1.5642939988088433 2.709436998432005 0.0 0.0 0.0 5.016955" Properties=species:S:1:pos:R:3:spacegroup_kinds:I:1:forces:R:3 spacegroup="P 1" unit_cell=conventional occupancy="_JSON {\"0\": {\"Al\": 1}, \"1\": {\"Al\": 1}, \"2\": {\"N\": 1}, \"3\": {\"N\": 1}}" energy=-29.673717498779297 free_energy=-29.673717498779297 stress="-0.002225189935415983 -1.2728723959298804e-06 -3.690817607093777e-08 -1.2728723959298804e-06 -0.002227429999038577 -1.2632876966733875e-09 -3.690817607093777e-08 -1.2632876966733875e-09 -0.005453671328723431" pbc="T T T"
Al       1.56429556       0.90314476       2.50490041        0      -0.00003365       0.00001979       0.00553083
Al      -0.00000156       1.80629224       5.01337791        1       0.00003401      -0.00002004       0.00552492
N        1.56429556       0.90314476       4.41849749        2      -0.00003600       0.00002045      -0.00553117
N       -0.00000156       1.80629224       1.91001999        3       0.00003560      -0.00002027      -0.00552479
