4
Lattice="3.128588 0.0 0.0 -1.5642939988088433 2.709436998432005 0.0 0.0 0.0 5.016955" Properties=species:S:1:pos:R:3:spacegroup_kinds:I:1:forces:R:3 spacegroup="P 1" unit_cell=conventional occupancy="_JSON {\"0\": {\"Al\": 1}, \"1\": {\"Al\": 1}, \"2\": {\"N\": 1}, \"3\": {\"N\": 1}}" energy=-29.673717498779297 free_energy=-29.673717498779297 stress="-0.0022253498900681734 -1.3852700249117333e-06 -3.076726784456696e-08 -1.3852700249117333e-06 -0.002227554563432932 -5.251140322570791e-08 -3.076726784456696e-08 -5.251140322570791e-08 -0.0054536666721105576" pbc="T T T"
Al       1.56429556       0.90314476       2.50490041        0      -0.00003489       0.00002109       0.00553246
Al      -0.00000156       1.80629224       5.01337791        1       0.00003511      -0.00001932       0.00552381
N        1.56429556       0.90314476       4.41849749        2      -0.00003705       0.00002014      -0.00553106
N       -0.00000156       1.80629224       1.91001999        3       0.00003684      -0.00002178      -0.00552537
