4
Lattice="3.128588 0.0 0.0 -1.5642939988088433 2.709436998432005 0.0 0.0 0.0 5.016955" Properties=species:S:1:pos:R:3:spacegroup_kinds:I:1:forces:R:3 spacegroup="P 1" unit_cell=conventional occupancy="_JSON {\"0\": {\"Al\": 1}, \"1\": {\"Al\": 1}, \"2\": {\"N\": 1}, \"3\": {\"N\": 1}}" energy=-29.673715591430664 free_energy=-29.673715591430664 stress="-0.0022251703776419163 -1.3582513247456518e-06 -2.0593219574038812e-08 -1.3582513247456518e-06 -0.0022273443173617125 -4.849284707120205e-08 -2.0593219574038812e-08 -4.849284707120205e-08 -0.005453662481158972" pbc="T T T"
Al       1.56429556       0.90314476       2.50490041        0      -0.00003361       0.00002032       0.00553153
Al      -0.00000156       1.80629224       5.01337791        1       0.00003409      -0.00001875       0.00552381
N        1.56429556       0.90314476       4.41849749        2      -0.00003559       0.00001971      -0.00553011
N       -0.00000156       1.80629224       1.91001999        3       0.00003509      -0.00002122      -0.00552536
