13
Lattice="7.26870274 0.0 0.0 3.634351370000001 6.294881225397555 0.0 3.634351370000001 2.0982937417991856 5.934870934989993" Properties=species:S:1:pos:R:3:spacegroup_kinds:I:1:forces:R:3 spacegroup="P 1" unit_cell=conventional occupancy="_JSON {\"0\": {\"Li\": 1}, \"1\": {\"Li\": 1}, \"2\": {\"Li\": 1}, \"3\": {\"Li\": 1}, \"4\": {\"Li\": 1}, \"5\": {\"Li\": 1}, \"6\": {\"P\": 1}, \"7\": {\"S\": 1}, \"8\": {\"S\": 1}, \"9\": {\"S\": 1}, \"10\": {\"S\": 1}, \"11\": {\"S\": 1}, \"12\": {\"Cl\": 1}}" energy=-53.3634147644043 free_energy=-53.3634147644043 stress="-0.0007942060474306345 -2.3840772200856009e-07 -1.5593536772939842e-07 -2.3840772200856009e-07 -0.0007939269416965544 -1.0599224964380483e-07 -1.5593536772939842e-07 -1.0599224964380483e-07 -0.0007938978960737586" pbc="T T T"
Li       9.25387995       7.24703237       3.10460814        0       0.00422614      -0.00243467       0.00344790
Li      12.55222827       5.34273008       5.79769826        1      -0.00421144       0.00243311      -0.00344141
Li       9.25387995       5.34273008       5.79769826        2       0.00422512       0.00243842      -0.00344700
Li      12.55222827       7.24703237       3.10460814        3      -0.00421187      -0.00243074       0.00344132
Li      10.90305411       4.39057894       3.10460814        4       0.00000250       0.00487564       0.00344791
Li      10.90305411       8.19918351       5.79769826        5       0.00000180      -0.00486328      -0.00344127
P        7.26870274       4.19658748       2.96743547        6       0.00008532       0.00004610       0.00003633
S        7.26870637       6.13578650       2.28182731        7      -0.00001826      -0.01090884       0.00384713
S        8.94810016       3.22699113       2.28182731        8      -0.00945869       0.00544068       0.00384726
S        5.58931258       3.22699113       2.28182731        9       0.00937825       0.00541302       0.00383016
S        7.26870637       4.19658958       5.02426588       10      -0.00001812      -0.00000969      -0.01156907
S       10.90305411       6.29488123       4.45115320       11      -0.00000202      -0.00000096      -0.00000006
Cl       0.00000000       0.00000000       0.00000000       12       0.00000127       0.00000127       0.00000080
