13
Lattice="7.26870274 0.0 0.0 3.634351370000001 6.294881225397555 0.0 3.634351370000001 2.0982937417991856 5.934870934989993" Properties=species:S:1:pos:R:3:spacegroup_kinds:I:1:momenta:R:3:forces:R:3 spacegroup="P 1" unit_cell=conventional occupancy="_JSON {\"0\": {\"Li\": 1}, \"1\": {\"Li\": 1}, \"2\": {\"Li\": 1}, \"3\": {\"Li\": 1}, \"4\": {\"Li\": 1}, \"5\": {\"Li\": 1}, \"6\": {\"P\": 1}, \"7\": {\"S\": 1}, \"8\": {\"S\": 1}, \"9\": {\"S\": 1}, \"10\": {\"S\": 1}, \"11\": {\"S\": 1}, \"12\": {\"Cl\": 1}}" energy=-53.30597686767578 free_energy=-53.30597686767578 stress="-0.0019142675446346402 -0.00248870812356472 -0.00037432846147567034 -0.00248870812356472 -0.00396137498319149 0.0006263370160013437 -0.00037432846147567034 0.0006263370160013437 0.0029807365499436855" pbc="T T T"
Li       9.20441565       7.28305167       3.06116755        0       0.14323453      -0.04711634      -0.00950154       0.22685373      -0.16382949       0.21498637
Li      12.52024231       5.22635585       5.74399163        1      -0.20001996      -0.38373933      -0.14222592      -0.08590038       0.01312786       0.20369935
Li       9.18320995       5.48001990       5.71410296        2      -0.21315873       0.54859997       0.06961603      -0.19460195       0.00815152       0.32992196
Li      12.43850959       7.17031165       2.99524467        3      -0.57398098       0.00107559      -0.47761637       0.12693983       0.14767995      -0.15637045
Li      10.86682579       4.48156962       2.98395839        4       0.02397964       0.71244401      -0.09948649       0.18870050       0.13802588      -0.00317463
Li      10.90605999       8.22223084       5.80721819        5       0.39420795       0.19773105      -0.13293667       0.06091755      -0.07833549      -0.07873474
P        7.28707116       4.19968660       2.96264008        6       0.67203399      -0.38532805      -0.64212429      -0.00674965      -0.20814276       0.16215944
S        7.27700697       6.12442323       2.27649851        7      -0.20109505       0.11766916       0.47256592      -0.17347801       0.21532211      -0.00783755
S        8.99920290       3.26724189       2.29016076        8       0.17998087       0.09320629       0.17677145      -0.37543321      -0.29241797      -0.05274444
S        5.59423345       3.22750244       2.31031499        9       0.10511370      -0.23495258      -0.02413537       0.07110541       0.16233531      -0.24085194
S        7.26377645       4.21300036       5.03417488       10       0.08934532      -0.11387143      -0.25868777       0.15436485      -0.07364747      -0.22123554
S       10.91079136       6.28743623       4.48406381       11      -0.23394665       0.20267993       0.14788040      -0.16791981       0.17493029      -0.35978782
Cl      -0.01849639      -0.05615703       0.01548835       12      -0.18569462      -0.70839830       0.91988061       0.17520116      -0.04319977       0.20996997
