13
Lattice="7.26870274 0.0 0.0 3.634351370000001 6.294881225397555 0.0 3.634351370000001 2.0982937417991856 5.934870934989993" Properties=species:S:1:pos:R:3:spacegroup_kinds:I:1:momenta:R:3:forces:R:3 spacegroup="P 1" unit_cell=conventional occupancy="_JSON {\"0\": {\"Li\": 1}, \"1\": {\"Li\": 1}, \"2\": {\"Li\": 1}, \"3\": {\"Li\": 1}, \"4\": {\"Li\": 1}, \"5\": {\"Li\": 1}, \"6\": {\"P\": 1}, \"7\": {\"S\": 1}, \"8\": {\"S\": 1}, \"9\": {\"S\": 1}, \"10\": {\"S\": 1}, \"11\": {\"S\": 1}, \"12\": {\"Cl\": 1}}" energy=-53.36341857910156 free_energy=-53.36341857910156 stress="-0.0007941890507936478 -2.2271674993135093e-07 -1.6114024958824302e-07 -2.2271674993135093e-07 -0.0007939190254546702 -9.803451916923223e-08 -1.6114024958824302e-07 -9.803451916923223e-08 -0.0007939141360111535" pbc="T T T"
Li       9.25387995       7.24703237       3.10460814        0       0.00000000       0.00000000       0.00000000       0.00422490      -0.00243387       0.00344793
Li      12.55222827       5.34273008       5.79769826        1       0.00000000       0.00000000       0.00000000      -0.00421043       0.00243299      -0.00344084
Li       9.25387995       5.34273008       5.79769826        2       0.00000000       0.00000000       0.00000000       0.00422483       0.00243878      -0.00344676
Li      12.55222827       7.24703237       3.10460814        3       0.00000000       0.00000000       0.00000000      -0.00421198      -0.00243091       0.00344133
Li      10.90305411       4.39057894       3.10460814        4       0.00000000       0.00000000       0.00000000       0.00000257       0.00487641       0.00344866
Li      10.90305411       8.19918351       5.79769826        5       0.00000000       0.00000000       0.00000000       0.00000208      -0.00486370      -0.00344163
P        7.26870274       4.19658748       2.96743547        6       0.00000000       0.00000000       0.00000000       0.00008535       0.00004616       0.00003637
S        7.26870637       6.13578650       2.28182731        7       0.00000000       0.00000000       0.00000000      -0.00001796      -0.01090875       0.00384739
S        8.94810016       3.22699113       2.28182731        8       0.00000000       0.00000000       0.00000000      -0.00945760       0.00544011       0.00384719
S        5.58931258       3.22699113       2.28182731        9       0.00000000       0.00000000       0.00000000       0.00937752       0.00541276       0.00382994
S        7.26870637       4.19658958       5.02426588       10       0.00000000       0.00000000       0.00000000      -0.00001877      -0.00000939      -0.01157025
S       10.90305411       6.29488123       4.45115320       11       0.00000000       0.00000000       0.00000000      -0.00000130      -0.00000182       0.00000012
Cl       0.00000000       0.00000000       0.00000000       12       0.00000000       0.00000000       0.00000000       0.00000080       0.00000136       0.00000048
13
Lattice="7.26870274 0.0 0.0 3.634351370000001 6.294881225397555 0.0 3.634351370000001 2.0982937417991856 5.934870934989993" Properties=species:S:1:pos:R:3:spacegroup_kinds:I:1:momenta:R:3:forces:R:3 spacegroup="P 1" unit_cell=conventional occupancy="_JSON {\"0\": {\"Li\": 1}, \"1\": {\"Li\": 1}, \"2\": {\"Li\": 1}, \"3\": {\"Li\": 1}, \"4\": {\"Li\": 1}, \"5\": {\"Li\": 1}, \"6\": {\"P\": 1}, \"7\": {\"S\": 1}, \"8\": {\"S\": 1}, \"9\": {\"S\": 1}, \"10\": {\"S\": 1}, \"11\": {\"S\": 1}, \"12\": {\"Cl\": 1}}" energy=-53.363365173339844 free_energy=-53.363365173339844 stress="-0.0008522026473656297 -6.929428491275758e-05 -9.951428364729509e-05 -6.929428491275758e-05 -0.0008304523071274161 4.18617892137263e-05 -9.951428364729509e-05 4.18617892137263e-05 -0.0008141266298480332" pbc="T T T"
Li       9.25398921       7.24808178       3.10605308        0       0.01031906       0.00778783       0.01578197       0.00245308      -0.00796393       0.00607970
Li      12.55288934       5.34380521       5.79589153        1       0.01262703       0.02394043      -0.05651863      -0.00292665       0.00205333       0.00508406
Li       9.25182080       5.34550363       5.79865225        2      -0.03169807       0.09610899       0.04381900       0.00473160       0.00425372      -0.00793069
Li      12.55112217       7.24737809       3.10368050        3       0.00660328       0.02920674      -0.02777772      -0.00270992      -0.00388693       0.00297565
Li      10.90280293       4.39105470       3.10355391        4       0.04121078       0.02112200      -0.00570778      -0.00017211       0.00542441       0.00439072
Li      10.90186937       8.20030335       5.79856298        5      -0.04146869       0.03946991       0.06027502      -0.00027213      -0.00860393      -0.00617758
P        7.26757638       4.19595674       2.96714772        6      -0.29130607      -0.04883063       0.08369085       0.03578794       0.01387868       0.00407763
S        7.26924203       6.13563149       2.28243713        7       0.13277415      -0.07766106       0.11359105      -0.00551459      -0.01081029       0.00264741
S        8.94848736       3.22723530       2.28191955        8       0.05534491       0.19494730       0.00805657      -0.01904978       0.00638977       0.00155199
S        5.59014466       3.22617440       2.28222998        9       0.18927417      -0.15999503       0.12013747      -0.01195726      -0.00034746      -0.00346054
S        7.26833247       4.19735083       5.02387227       10      -0.02673178       0.19553015      -0.15577559      -0.00021775      -0.00470920      -0.00795566
S       10.90307551       6.29420032       4.45182242       11       0.03214004      -0.26998513       0.10557939      -0.00325830       0.00804166      -0.00231838
Cl       0.00034927      -0.00027251      -0.00085253       12      -0.08908882      -0.05164151      -0.30515160       0.00310587      -0.00371979       0.00103573
13
Lattice="7.26870274 0.0 0.0 3.634351370000001 6.294881225397555 0.0 3.634351370000001 2.0982937417991856 5.934870934989993" Properties=species:S:1:pos:R:3:spacegroup_kinds:I:1:momenta:R:3:forces:R:3 spacegroup="P 1" unit_cell=conventional occupancy="_JSON {\"0\": {\"Li\": 1}, \"1\": {\"Li\": 1}, \"2\": {\"Li\": 1}, \"3\": {\"Li\": 1}, \"4\": {\"Li\": 1}, \"5\": {\"Li\": 1}, \"6\": {\"P\": 1}, \"7\": {\"S\": 1}, \"8\": {\"S\": 1}, \"9\": {\"S\": 1}, \"10\": {\"S\": 1}, \"11\": {\"S\": 1}, \"12\": {\"Cl\": 1}}" energy=-53.36277389526367 free_energy=-53.36277389526367 stress="-0.001068434095941484 -0.00021727925923187286 -0.0002779186179395765 -0.00021727925923187286 -0.0008328246185556054 6.695356569252908e-05 -0.0002779186179395765 6.695356569252908e-05 -0.0008794927853159606" pbc="T T T"
Li       9.25350279       7.24980303       3.10661439        0       0.00202184       0.13359124      -0.01797534       0.00801276      -0.02277629       0.01644419
Li      12.55192165       5.34333414       5.79318876        1       0.01993355      -0.02306386      -0.14619719       0.00246879      -0.00147026       0.02081618
Li       9.25021223       5.34942247       5.80006371        2      -0.06220101       0.06890058       0.05259323       0.00333135       0.00477621      -0.01491275
Li      12.55252073       7.24943747       3.10513639        3       0.04973196       0.08133199       0.02889545      -0.00304759      -0.00474777       0.00824589
Li      10.90534736       4.39030493       3.10081455        4       0.05970657      -0.03653284      -0.14135422      -0.01089641       0.01155996       0.00938407
Li      10.89855154       8.20160946       5.80196241        5      -0.13252169       0.09399116       0.07593073      -0.00068716      -0.01683088      -0.02210408
P        7.26478307       4.19515426       2.96730905        6      -0.34703867      -0.09768300       0.02545131       0.12394126       0.04940071       0.01328289
S        7.27030391       6.13572105       2.28263182        7       0.08192282       0.02894203       0.06925321      -0.01984772      -0.01583698       0.00755304
S        8.94870072       3.22867683       2.28225589        8       0.12574446       0.13611341       0.04702641      -0.03513247       0.00619536      -0.00193066
S        5.59218789       3.22524444       2.28359918        9       0.18391925      -0.18990282       0.30677306      -0.06046311      -0.02041727      -0.02639401
S        7.26846619       4.19949141       5.02366177       10      -0.08712278       0.39676245       0.10734492      -0.00601928      -0.01441329       0.00029838
S       10.90353029       6.29154337       4.45247581       11       0.17074875      -0.35457800       0.03673764      -0.01010757       0.03221935      -0.01082389
Cl      -0.00021222      -0.00111806      -0.00343138       12      -0.06484505      -0.23787236      -0.44447921       0.00844715      -0.00765888       0.00014082
13
Lattice="7.26870274 0.0 0.0 3.634351370000001 6.294881225397555 0.0 3.634351370000001 2.0982937417991856 5.934870934989993" Properties=species:S:1:pos:R:3:spacegroup_kinds:I:1:momenta:R:3:forces:R:3 spacegroup="P 1" unit_cell=conventional occupancy="_JSON {\"0\": {\"Li\": 1}, \"1\": {\"Li\": 1}, \"2\": {\"Li\": 1}, \"3\": {\"Li\": 1}, \"4\": {\"Li\": 1}, \"5\": {\"Li\": 1}, \"6\": {\"P\": 1}, \"7\": {\"S\": 1}, \"8\": {\"S\": 1}, \"9\": {\"S\": 1}, \"10\": {\"S\": 1}, \"11\": {\"S\": 1}, \"12\": {\"Cl\": 1}}" energy=-53.36103820800781 free_energy=-53.36103820800781 stress="-0.0011665193596854806 -0.00035753141855821013 -0.00043530549737624824 -0.00035753141855821013 -0.0007868105312809348 0.00014103302964940667 -0.00043530549737624824 0.00014103302964940667 -0.0008284943760372698" pbc="T T T"
Li       9.25488472       7.25647369       3.10537117        0      -0.02871541       0.23750335      -0.05810004       0.01136735      -0.05826990       0.03271686
Li      12.55327786       5.34267364       5.78967725        1       0.00391313      -0.02738587      -0.05031627      -0.00330415       0.00314034       0.03675209
Li       9.24864363       5.35265241       5.80095377        2      -0.10070482       0.07909135      -0.05858307       0.00538030       0.00778534      -0.01867465
Li      12.55323098       7.25246018       3.10773770        3       0.03414031       0.09115394       0.14390925       0.00326087      -0.01014967       0.01280295
Li      10.90826648       4.39166289       3.09488677        4       0.10892181       0.13616350      -0.22144276      -0.02474901       0.02064059       0.01279633
Li      10.89491684       8.20671124       5.80540880        5      -0.03635580       0.14795633       0.14273196      -0.00098925      -0.04279032      -0.04266821
P        7.26257086       4.19376061       2.96803161        6      -0.25179233      -0.03743279       0.12549555       0.20901567       0.10522071       0.00608772
S        7.27123246       6.13597788       2.28193496        7       0.17326437       0.05576942      -0.15013282      -0.02988805      -0.03530975       0.02625906
S        8.94944970       3.22910042       2.28208976        8       0.14268474       0.04140611      -0.06313271      -0.06185747       0.01207370       0.00315510
S        5.59334966       3.22430323       2.28658703        9       0.11427453      -0.10121431       0.37256716      -0.09846736      -0.03133561      -0.05734043
S        7.26747034       4.20298980       5.02417796       10      -0.11624619       0.37664025      -0.05126085      -0.00017089      -0.02804924       0.00074975
S       10.90445673       6.28798695       4.45280473       11       0.04259259      -0.63793691       0.22254768      -0.02215105       0.06959896      -0.01435206
Cl      -0.00105020      -0.00340549      -0.00596196       12      -0.08597692      -0.36171440      -0.35428310       0.01255307      -0.01255511       0.00171552
13
Lattice="7.26870274 0.0 0.0 3.634351370000001 6.294881225397555 0.0 3.634351370000001 2.0982937417991856 5.934870934989993" Properties=species:S:1:pos:R:3:spacegroup_kinds:I:1:momenta:R:3:forces:R:3 spacegroup="P 1" unit_cell=conventional occupancy="_JSON {\"0\": {\"Li\": 1}, \"1\": {\"Li\": 1}, \"2\": {\"Li\": 1}, \"3\": {\"Li\": 1}, \"4\": {\"Li\": 1}, \"5\": {\"Li\": 1}, \"6\": {\"P\": 1}, \"7\": {\"S\": 1}, \"8\": {\"S\": 1}, \"9\": {\"S\": 1}, \"10\": {\"S\": 1}, \"11\": {\"S\": 1}, \"12\": {\"Cl\": 1}}" energy=-53.35826873779297 free_energy=-53.35826873779297 stress="-0.001114988699555397 -0.0005725156515836716 -0.000643003499135375 -0.0005725156515836716 -0.0008341851644217968 0.0001894757733680308 -0.000643003499135375 0.0001894757733680308 -0.0009444628958590329" pbc="T T T"
Li       9.25457577       7.26356756       3.10429523        0       0.00092677       0.20202757      -0.03259318       0.02077261      -0.09249476       0.05255120
Li      12.55091004       5.34067767       5.78792962        1      -0.08909149      -0.06200827      -0.02212394       0.00182497      -0.00194281       0.05302203
Li       9.24331086       5.35637406       5.79825096        2      -0.20191541       0.07464143      -0.15306088       0.01133690       0.01464115      -0.00690674
Li      12.55511343       7.25392891       3.11117183        3      -0.02880040       0.03448048       0.02187720       0.00558338      -0.00906447       0.01765896
Li      10.91268481       4.39498044       3.08764265        4       0.11386963       0.02653042      -0.21483357      -0.04556987       0.02741276       0.01284131
Li      10.89548617       8.20847337       5.80746936        5       0.03627409      -0.03861037      -0.02377895       0.00055011      -0.05545377      -0.05764822
P        7.25985259       4.19402891       2.96955706        6      -0.39216901      -0.00110192       0.21046960       0.31649262       0.11823286      -0.03802074
S        7.27294084       6.13587085       2.28019711        7       0.31307216       0.06362985      -0.33384242      -0.04454679      -0.03708312       0.04173108
S        8.95113900       3.22983412       2.28165176        8       0.28130593       0.00426038      -0.10099822      -0.10830763       0.02612120       0.02117275
S        5.59393612       3.22437674       2.28981301        9       0.15258489       0.21680034       0.38059095      -0.12804969      -0.03986023      -0.09327839
S        7.26780679       4.20575537       5.02346055       10       0.18741130       0.36606821       0.07982224      -0.01321308      -0.04016691       0.02972618
S       10.90422399       6.28342078       4.45486779       11      -0.02453678      -0.50865876       0.43506495      -0.03189634       0.10898910      -0.03599958
Cl      -0.00218049      -0.00574285      -0.00800283       12      -0.34893169      -0.37805937      -0.24659377       0.01502279      -0.01933105       0.00315019
13
Lattice="7.26870274 0.0 0.0 3.634351370000001 6.294881225397555 0.0 3.634351370000001 2.0982937417991856 5.934870934989993" Properties=species:S:1:pos:R:3:spacegroup_kinds:I:1:momenta:R:3:forces:R:3 spacegroup="P 1" unit_cell=conventional occupancy="_JSON {\"0\": {\"Li\": 1}, \"1\": {\"Li\": 1}, \"2\": {\"Li\": 1}, \"3\": {\"Li\": 1}, \"4\": {\"Li\": 1}, \"5\": {\"Li\": 1}, \"6\": {\"P\": 1}, \"7\": {\"S\": 1}, \"8\": {\"S\": 1}, \"9\": {\"S\": 1}, \"10\": {\"S\": 1}, \"11\": {\"S\": 1}, \"12\": {\"Cl\": 1}}" energy=-53.35404968261719 free_energy=-53.35404968261719 stress="-0.0012778297532349825 -0.0009502954198978841 -0.0009146391530521214 -0.0009502954198978841 -0.000778509653173387 0.00015098047151695937 -0.0009146391530521214 0.00015098047151695937 -0.0008403199026361108" pbc="T T T"
Li       9.25470644       7.26982819       3.10255768        0      -0.08579938       0.20360750      -0.09099723       0.02688365      -0.12134188       0.06677696
Li      12.54778856       5.33763659       5.78502385        1      -0.12542003      -0.11709070      -0.20050998       0.00931163      -0.00830421       0.07424169
Li       9.23434637       5.35958931       5.78832486        2      -0.27765084       0.10226444      -0.36194417       0.02688491       0.02702334       0.02827585
Li      12.55127567       7.25232394       3.11057642        3      -0.15342714      -0.08111740      -0.08699072       0.01947200      -0.00422334       0.01078156
Li      10.91474095       4.39395316       3.07806728        4      -0.05360280      -0.11311966      -0.29036624      -0.05701245       0.05604740       0.02913543
Li      10.89438106       8.20579051       5.80781941        5      -0.03050198      -0.13962661       0.04023114       0.00301760      -0.04811845      -0.05863703
P        7.25823769       4.19413505       2.97255231        6      -0.03520532      -0.03096762       0.51737422       0.41763204       0.15207306      -0.10049810
S        7.27452256       6.13598464       2.27733071        7       0.05929118      -0.01662832      -0.22070455      -0.05648999      -0.05031275       0.07249448
S        8.95371283       3.23078197       2.28072247        8       0.42792135       0.32613515      -0.18449010      -0.16402534       0.03140936       0.04424770
S        5.59582485       3.22631512       2.29252864        9       0.34391664       0.17515413       0.31108645      -0.15997313      -0.06265634      -0.13541862
S        7.26872590       4.20818588       5.02456635       10       0.12054517       0.31201180       0.19747765      -0.03337858      -0.06321897       0.04628503
S       10.90472392       6.28038930       4.45876113       11       0.25020074      -0.28803762       0.49340688      -0.05406273       0.11662073      -0.08567597
Cl      -0.00472742      -0.00817229      -0.00946184       12      -0.44026758      -0.33258509      -0.12357335       0.02174053      -0.02499797       0.00799107
13
Lattice="7.26870274 0.0 0.0 3.634351370000001 6.294881225397555 0.0 3.634351370000001 2.0982937417991856 5.934870934989993" Properties=species:S:1:pos:R:3:spacegroup_kinds:I:1:momenta:R:3:forces:R:3 spacegroup="P 1" unit_cell=conventional occupancy="_JSON {\"0\": {\"Li\": 1}, \"1\": {\"Li\": 1}, \"2\": {\"Li\": 1}, \"3\": {\"Li\": 1}, \"4\": {\"Li\": 1}, \"5\": {\"Li\": 1}, \"6\": {\"P\": 1}, \"7\": {\"S\": 1}, \"8\": {\"S\": 1}, \"9\": {\"S\": 1}, \"10\": {\"S\": 1}, \"11\": {\"S\": 1}, \"12\": {\"Cl\": 1}}" energy=-53.34724426269531 free_energy=-53.34724426269531 stress="-0.0013564946129918098 -0.0013619803357869387 -0.0011544008739292622 -0.0013619803357869387 -0.0008507445454597473 0.00015411776257678866 -0.0011544008739292622 0.00015411776257678866 -0.0007607587613165379" pbc="T T T"
Li       9.24965117       7.27695269       3.09814438        0      -0.25968885       0.27415166      -0.16919462       0.05338055      -0.15458226       0.09510176
Li      12.54586927       5.33106781       5.77787845        1      -0.03502274      -0.25249315      -0.18512024       0.00847796      -0.01081447       0.10599859
Li       9.22316485       5.36492988       5.77605975        2      -0.33461760       0.18445468      -0.37741023       0.04949951       0.04571077       0.07068684
Li      12.54648677       7.24675713       3.10625131        3      -0.12933307      -0.22073214      -0.16704525       0.02509136       0.01488362       0.00120676
Li      10.91122898       4.39099777       3.06698062        4      -0.23566909      -0.10628836      -0.37449119      -0.04563560       0.09686584       0.05351161
Li      10.89254753       8.20121862       5.81030792        5      -0.08060978      -0.10639401       0.12130150       0.00681762      -0.03852672      -0.06771085
P        7.25826956       4.19583211       2.97718547        6       0.06572426       0.39912656       0.57217052       0.47944391       0.12136178      -0.19897729
S        7.27476145       6.13508221       2.27505052        7      -0.00669230      -0.19177613      -0.39397109      -0.06559652      -0.03770229       0.09750681
S        8.95803819       3.23390669       2.27926159        8       0.72778302       0.38215707      -0.09768821      -0.23814148       0.02340613       0.06391293
S        5.59772740       3.22752080       2.29555793        9       0.31208863       0.12202511       0.55383284      -0.16420320      -0.05536348      -0.16770987
S        7.27005397       4.20979910       5.02583878       10       0.18019657       0.19695575       0.06834175      -0.04747362      -0.08843610       0.08051060
S       10.90633508       6.27880439       4.46272213       11       0.20201680      -0.19538259       0.53861896      -0.09434828       0.11371942      -0.14836031
Cl      -0.00774086      -0.01132283      -0.01049504       12      -0.40617585      -0.48580447      -0.08934473       0.03268787      -0.03052224       0.01432241
13
Lattice="7.26870274 0.0 0.0 3.634351370000001 6.294881225397555 0.0 3.634351370000001 2.0982937417991856 5.934870934989993" Properties=species:S:1:pos:R:3:spacegroup_kinds:I:1:momenta:R:3:forces:R:3 spacegroup="P 1" unit_cell=conventional occupancy="_JSON {\"0\": {\"Li\": 1}, \"1\": {\"Li\": 1}, \"2\": {\"Li\": 1}, \"3\": {\"Li\": 1}, \"4\": {\"Li\": 1}, \"5\": {\"Li\": 1}, \"6\": {\"P\": 1}, \"7\": {\"S\": 1}, \"8\": {\"S\": 1}, \"9\": {\"S\": 1}, \"10\": {\"S\": 1}, \"11\": {\"S\": 1}, \"12\": {\"Cl\": 1}}" energy=-53.338130950927734 free_energy=-53.338130950927734 stress="-0.00127669598441571 -0.001802837010473013 -0.0013148931320756674 -0.001802837010473013 -0.001026444835588336 0.00024149286036845297 -0.0013148931320756674 0.00024149286036845297 -0.0006950048846192658" pbc="T T T"
Li       9.24079450       7.28606155       3.09287827        0      -0.26463392       0.26880531      -0.12718269       0.09131934      -0.19294102       0.13315266
Li      12.54455261       5.32097098       5.77367352        1      -0.07661965      -0.24594122      -0.11105594      -0.00915230      -0.00484438       0.12115908
Li       9.21316543       5.37431952       5.76608302        2      -0.23568368       0.30413016      -0.28289001       0.06025220       0.06088760       0.10440573
Li      12.54187409       7.24001931       3.10073750        3      -0.14744862      -0.23319282      -0.21488446       0.02336567       0.03211138      -0.00475384
Li      10.90337164       4.38641081       3.05541746        4      -0.16449067      -0.12325691      -0.31884638      -0.01268576       0.14853600       0.08470760
Li      10.89092524       8.19970824       5.81385851        5      -0.01265706      -0.02464143       0.09510312       0.01132722      -0.04351227      -0.08831196
P        7.25966689       4.19840506       2.98082418        6       0.23186005       0.27265229       0.50014261       0.50563216       0.05464919      -0.27689433
S        7.27501063       6.13366686       2.27306667        7       0.11297507      -0.21061845      -0.17937091      -0.07353534      -0.00905231       0.11190897
S        8.96410147       3.23713122       2.27891040        8       0.84989388       0.32226544       0.03844600      -0.32575226       0.00763764       0.07718839
S        5.59920118       3.22836930       2.29835674        9       0.15852170       0.09511362       0.20915266      -0.14755493      -0.02681141      -0.19369970
S        7.27010044       4.21102716       5.02668675       10      -0.10539493       0.08663175       0.08975835      -0.04290378      -0.10350969       0.10912631
S       10.90737480       6.27761603       4.46553624       11      -0.01951342      -0.03713107       0.28677968      -0.12683509       0.11232105      -0.19828780
Cl      -0.01033204      -0.01530843      -0.01076585       12      -0.32680874      -0.47481669       0.01484797       0.04652284      -0.03547179       0.02029878
13
Lattice="7.26870274 0.0 0.0 3.634351370000001 6.294881225397555 0.0 3.634351370000001 2.0982937417991856 5.934870934989993" Properties=species:S:1:pos:R:3:spacegroup_kinds:I:1:momenta:R:3:forces:R:3 spacegroup="P 1" unit_cell=conventional occupancy="_JSON {\"0\": {\"Li\": 1}, \"1\": {\"Li\": 1}, \"2\": {\"Li\": 1}, \"3\": {\"Li\": 1}, \"4\": {\"Li\": 1}, \"5\": {\"Li\": 1}, \"6\": {\"P\": 1}, \"7\": {\"S\": 1}, \"8\": {\"S\": 1}, \"9\": {\"S\": 1}, \"10\": {\"S\": 1}, \"11\": {\"S\": 1}, \"12\": {\"Cl\": 1}}" energy=-53.328304290771484 free_energy=-53.328304290771484 stress="-0.001237300573848188 -0.0021221016068011522 -0.0013959658099338412 -0.0021221016068011522 -0.0012387485476210713 0.00031750492053106427 -0.0013959658099338412 0.00031750492053106427 -0.0005185655900277197" pbc="T T T"
Li       9.23206969       7.29393618       3.08830435        0      -0.26035470       0.15218628      -0.15190753       0.12390946      -0.22353078       0.16600542
Li      12.54264000       5.30985322       5.76860044        1      -0.00903290      -0.36646388      -0.12955909      -0.02848639       0.00133371       0.13915472
Li       9.20505621       5.38445882       5.75651581        2      -0.24621074       0.27101554      -0.31890568       0.06040147       0.07056785       0.13394949
Li      12.53540612       7.23103790       3.09213878        3      -0.21101309      -0.24659967      -0.28604597       0.02418422       0.05195175      -0.01644530
Li      10.89804954       4.38517048       3.04364498        4      -0.16892146       0.04386466      -0.30065244       0.01331803       0.19359398       0.10950322
Li      10.88978053       8.19966091       5.81513395        5      -0.04956450       0.06727662      -0.03077164       0.01531298      -0.04777829      -0.09658176
P        7.26112285       4.19972078       2.98351678        6       0.17569910       0.08180156       0.24106695       0.51490581       0.00157964      -0.33469015
S        7.27595332       6.13208304       2.27202568        7       0.05720150      -0.21031304      -0.16023693      -0.08496578       0.01182394       0.11762143
S        8.96968862       3.24010777       2.27919471        8       0.72316448       0.34239198       0.16643841      -0.39803499      -0.01461402       0.08403361
S        5.59946050       3.22893739       2.30024382        9      -0.03909685       0.07466063       0.38633321      -0.12119719       0.00276373      -0.21422184
S        7.26875128       4.21155761       5.02770136       10      -0.22349943       0.11211424       0.17939866      -0.02908731      -0.11250521       0.12424477
S       10.90826558       6.27853100       4.46814814       11       0.26428915       0.19940259       0.24485715      -0.15276235       0.10334142      -0.24312472
Cl      -0.01115736      -0.01893552      -0.01000448       12      -0.01266058      -0.52133752       0.15998489       0.06250209      -0.03852774       0.03055107
13
Lattice="7.26870274 0.0 0.0 3.634351370000001 6.294881225397555 0.0 3.634351370000001 2.0982937417991856 5.934870934989993" Properties=species:S:1:pos:R:3:spacegroup_kinds:I:1:momenta:R:3:forces:R:3 spacegroup="P 1" unit_cell=conventional occupancy="_JSON {\"0\": {\"Li\": 1}, \"1\": {\"Li\": 1}, \"2\": {\"Li\": 1}, \"3\": {\"Li\": 1}, \"4\": {\"Li\": 1}, \"5\": {\"Li\": 1}, \"6\": {\"P\": 1}, \"7\": {\"S\": 1}, \"8\": {\"S\": 1}, \"9\": {\"S\": 1}, \"10\": {\"S\": 1}, \"11\": {\"S\": 1}, \"12\": {\"Cl\": 1}}" energy=-53.31884765625 free_energy=-53.31884765625 stress="-0.0013257210375741124 -0.00246130907908082 -0.0014363557565957308 -0.00246130907908082 -0.0014588782796636224 0.00031445163767784834 -0.0014363557565957308 0.00031445163767784834 -0.0002020555839408189" pbc="T T T"
Li       9.22363695       7.29773445       3.08422397        0      -0.18134644       0.06654869      -0.10346629       0.15100841      -0.23775339       0.19028223
Li      12.54228110       5.29719786       5.76351865        1      -0.01536909      -0.34677782      -0.20831202      -0.05724180       0.01296162       0.15685175
Li       9.19879166       5.39405284       5.74488584        2      -0.17576428       0.27241666      -0.28007362       0.05294437       0.07564148       0.17091189
Li      12.52730328       7.22160331       3.08245828        3      -0.25243579      -0.32091754      -0.36994803       0.03044055       0.07152509      -0.03196434
Li      10.89234473       4.39019118       3.03147712        4      -0.19666368       0.22579649      -0.40094898       0.04368758       0.22271952       0.11998285
Li      10.88820887       8.20144450       5.81403061        5       0.00664725      -0.01831101      -0.07245825       0.01844315      -0.05303910      -0.09620360
P        7.26237325       4.19994131       2.98487811        6       0.19423302       0.00605052       0.05672392       0.51859111      -0.02615052      -0.36395854
S        7.27618552       6.13091050       2.27118123        7       0.07485898      -0.17487755      -0.04179593      -0.09479220       0.01870632       0.11723856
S        8.97537476       3.24273911       2.28090326        8       0.81079140       0.39538842       0.18294046      -0.46054962      -0.03740136       0.08389600
S        5.59923612       3.22949909       2.30316557        9      -0.04124171       0.10066575       0.40879729      -0.10631536       0.02055038      -0.23991217
S        7.26664096       4.21297394       5.02884196       10      -0.31513796       0.29401404       0.27556942      -0.00386693      -0.12280099       0.12186454
S       10.90975835       6.28008282       4.47024498       11       0.07731335       0.17907891       0.30387110      -0.17155688       0.09584261      -0.27499679
Cl      -0.01083544      -0.02323940      -0.00899576       12       0.01411494      -0.67907558       0.24910093       0.07920761      -0.04080169       0.04600754
13