13
Lattice="7.26870274 0.0 0.0 3.634351370000001 6.294881225397555 0.0 3.634351370000001 2.0982937417991856 5.934870934989993" Properties=species:S:1:pos:R:3:spacegroup_kinds:I:1:forces:R:3 spacegroup="P 1" unit_cell=conventional occupancy="_JSON {\"0\": {\"Li\": 1}, \"1\": {\"Li\": 1}, \"2\": {\"Li\": 1}, \"3\": {\"Li\": 1}, \"4\": {\"Li\": 1}, \"5\": {\"Li\": 1}, \"6\": {\"P\": 1}, \"7\": {\"S\": 1}, \"8\": {\"S\": 1}, \"9\": {\"S\": 1}, \"10\": {\"S\": 1}, \"11\": {\"S\": 1}, \"12\": {\"Cl\": 1}}" energy=-53.36341857910156 free_energy=-53.36341857910156 stress="-0.0007941890507936478 -2.2271674993135093e-07 -1.6114024958824302e-07 -2.2271674993135093e-07 -0.0007939190254546702 -9.803451916923223e-08 -1.6114024958824302e-07 -9.803451916923223e-08 -0.0007939141360111535" pbc="T T T"
Li       9.25387995       7.24703237       3.10460814        0       0.00422490      -0.00243387       0.00344793
Li      12.55222827       5.34273008       5.79769826        1      -0.00421043       0.00243299      -0.00344084
Li       9.25387995       5.34273008       5.79769826        2       0.00422483       0.00243878      -0.00344676
Li      12.55222827       7.24703237       3.10460814        3      -0.00421198      -0.00243091       0.00344133
Li      10.90305411       4.39057894       3.10460814        4       0.00000257       0.00487641       0.00344866
Li      10.90305411       8.19918351       5.79769826        5       0.00000208      -0.00486370      -0.00344163
P        7.26870274       4.19658748       2.96743547        6       0.00008535       0.00004616       0.00003637
S        7.26870637       6.13578650       2.28182731        7      -0.00001796      -0.01090875       0.00384739
S        8.94810016       3.22699113       2.28182731        8      -0.00945760       0.00544011       0.00384719
S        5.58931258       3.22699113       2.28182731        9       0.00937752       0.00541276       0.00382994
S        7.26870637       4.19658958       5.02426588       10      -0.00001877      -0.00000939      -0.01157025
S       10.90305411       6.29488123       4.45115320       11      -0.00000130      -0.00000182       0.00000012
Cl       0.00000000       0.00000000       0.00000000       12       0.00000080       0.00000136       0.00000048
