4
Lattice="3.128588 0.0 0.0 -1.5642939988088433 2.709436998432005 0.0 0.0 0.0 5.016955" Properties=species:S:1:pos:R:3:spacegroup_kinds:I:1:momenta:R:3:forces:R:3 spacegroup="P 1" unit_cell=conventional occupancy="_JSON {\"0\": {\"Al\": 1}, \"1\": {\"Al\": 1}, \"2\": {\"N\": 1}, \"3\": {\"N\": 1}}" energy=-29.623743057250977 free_energy=-29.623743057250977 stress="0.004300350323319435 -0.008672715164721012 0.0028820557054132223 -0.008672715164721012 -0.006943692918866873 -0.0044344887137413025 0.0028820557054132223 -0.0044344887137413025 -0.014839092269539833" pbc="T T T"
Al       1.54321201       0.89379621       2.53645980        0      -0.00705458      -0.41529139       0.79445062      -0.25250155       0.39302817      -0.87834382
Al       0.03580902       1.79893952       4.98957806        1       0.09337968      -0.29525118      -0.61192002      -0.16601184       0.14058213       0.62745374
N        1.59619756       0.90645096       4.40111851        2      -0.02189855       1.09350642       0.27120747      -0.08899743      -0.09593739       0.34911507
N       -0.05911259       1.83464205       1.91219265        3      -0.06442659      -0.38296383      -0.45373808       0.50751078      -0.43767279      -0.09822496
