4
Lattice="3.128588 0.0 0.0 -1.5642939988088433 2.709436998432005 0.0 0.0 0.0 5.016955" Properties=species:S:1:pos:R:3:spacegroup_kinds:I:1:momenta:R:3:forces:R:3 spacegroup="P 1" unit_cell=conventional occupancy="_JSON {\"0\": {\"Al\": 1}, \"1\": {\"Al\": 1}, \"2\": {\"N\": 1}, \"3\": {\"N\": 1}}" energy=-29.673717498779297 free_energy=-29.673717498779297 stress="-0.0022254574578255415 -1.3742359215029865e-06 -2.3157927131478573e-08 -1.3742359215029865e-06 -0.0022274202201515436 -3.2444798847564016e-08 -2.3157927131478573e-08 -3.2444798847564016e-08 -0.00545367831364274" pbc="T T T"
Al       1.56429556       0.90314476       2.50490041        0       0.68448204       0.53670047       0.91071479      -0.00003445       0.00002054       0.00553305
Al      -0.00000156       1.80629224       5.01337791        1       0.31075784       0.39520501      -1.87833745       0.00003461      -0.00001974       0.00552348
N        1.56429556       0.90314476       4.41849749        2      -0.23293981      -0.79739853      -0.40745139      -0.00003616       0.00002048      -0.00553020
N       -0.00000156       1.80629224       1.91001999        3      -0.76230006      -0.13450696       1.37507406       0.00003597      -0.00002117      -0.00552607
4
Lattice="3.128588 0.0 0.0 -1.5642939988088433 2.709436998432005 0.0 0.0 0.0 5.016955" Properties=species:S:1:pos:R:3:spacegroup_kinds:I:1:momenta:R:3:forces:R:3 spacegroup="P 1" unit_cell=conventional occupancy="_JSON {\"0\": {\"Al\": 1}, \"1\": {\"Al\": 1}, \"2\": {\"N\": 1}, \"3\": {\"N\": 1}}" energy=-29.433591842651367 free_energy=-29.433591842651367 stress="-0.013773486949503422 -0.0164465494453907 0.012948760762810707 -0.0164465494453907 -0.023968705907464027 0.009969716891646385 0.012948760762810707 0.009969716891646385 -0.01205950416624546" pbc="T T T"
Al       1.60246141       0.92231283       2.54150848        0       0.57498218      -0.13491998       1.02882485      -1.31301403      -0.49033353      -0.87831402
Al       0.00328789       1.81111139       4.94718774        1      -0.44725805       0.00118064      -1.07867326      -0.30154085      -0.59423244       1.18011785
N        1.53678588       0.85870780       4.38099595        2       0.14052037      -0.46066730       0.20203871       0.28490669       0.67984474       1.25553751
N       -0.05228245       1.80432671       2.00436660        3      -0.26824451       0.59440667      -0.15219031       1.32964826       0.40472135      -1.55734134
4
Lattice="3.128588 0.0 0.0 -1.5642939988088433 2.709436998432005 0.0 0.0 0.0 5.016955" Properties=species:S:1:pos:R:3:spacegroup_kinds:I:1:momenta:R:3:forces:R:3 spacegroup="P 1" unit_cell=conventional occupancy="_JSON {\"0\": {\"Al\": 1}, \"1\": {\"Al\": 1}, \"2\": {\"N\": 1}, \"3\": {\"N\": 1}}" energy=-29.5672550201416 free_energy=-29.5672550201416 stress="0.012915563769638538 0.0017025223933160305 0.0035793848801404238 0.0017025223933160305 -0.02585718221962452 -0.005369188264012337 0.0035793848801404238 -0.005369188264012337 -0.011435332708060741" pbc="T T T"
Al       1.59598185       0.90138485       2.55101266        0      -0.85004000      -0.64755160      -0.41676277      -0.33522657       0.74370420      -1.26921332
Al      -0.01311800       1.79082859       4.96769657        1      -0.24557027      -0.74327795       1.65595762      -0.18280265      -0.17026669       1.21499729
N        1.52960409       0.86779351       4.41996342        2       0.16413073       0.60763585       0.63654589       0.31887633       0.39321268      -0.09056978
N       -0.00060095       1.87475190       1.90756520        3       0.93147953       0.78319375      -1.87574071       0.19915277      -0.96665001       0.14478584
4
Lattice="3.128588 0.0 0.0 -1.5642939988088433 2.709436998432005 0.0 0.0 0.0 5.016955" Properties=species:S:1:pos:R:3:spacegroup_kinds:I:1:momenta:R:3:forces:R:3 spacegroup="P 1" unit_cell=conventional occupancy="_JSON {\"0\": {\"Al\": 1}, \"1\": {\"Al\": 1}, \"2\": {\"N\": 1}, \"3\": {\"N\": 1}}" energy=-29.406274795532227 free_energy=-29.406274795532227 stress="0.01068870909512043 0.016498267650604248 -0.008164023980498314 0.016498267650604248 -0.009423324838280678 -0.015553927049040794 -0.008164023980498314 -0.015553927049040794 -0.061254195868968964" pbc="T T T"
Al       1.53423928       0.87298461       2.51007453        0      -1.60925375       0.09619223      -1.03262322       0.74608946       1.00298500       0.03482380
Al      -0.01349003       1.78470222       5.05709164        1       0.21561234      -0.04339804       1.72443306       0.02271205       0.40732905      -1.66436958
N        1.55208973       0.92225132       4.42203509        2       0.38659383       0.63935806      -0.93002914       0.04495811      -0.39009708      -0.56986046
N        0.09667398       1.88681817       1.81230437        3       1.00704757      -0.69215229       0.23821933      -0.81375962      -1.02021730       2.19940639
4
Lattice="3.128588 0.0 0.0 -1.5642939988088433 2.709436998432005 0.0 0.0 0.0 5.016955" Properties=species:S:1:pos:R:3:spacegroup_kinds:I:1:momenta:R:3:forces:R:3 spacegroup="P 1" unit_cell=conventional occupancy="_JSON {\"0\": {\"Al\": 1}, \"1\": {\"Al\": 1}, \"2\": {\"N\": 1}, \"3\": {\"N\": 1}}" energy=-29.201904296875 free_energy=-29.201904296875 stress="-0.02644101157784462 0.038155365735292435 -0.03138267248868942 0.038155365735292435 -0.004877215251326561 0.0015437774127349257 -0.03138267248868942 0.0015437774127349257 -0.051819801330566406" pbc="T T T"
Al       1.49382403       0.87740193       2.48150489        0      -0.08661625      -0.02748836       0.25595543       2.48428273      -0.46186787       1.22611856
Al      -0.02076736       1.79337850       5.08843295        1       0.00716722       0.60209040      -1.27068240       0.64723200       0.57433516      -2.36004138
N        1.60157221       0.96971686       4.33361320        2       0.49437281       0.53651059      -0.17473405      -0.53882402      -0.70145333       1.74609017
N        0.13924906       1.81421454       1.89535167        3      -0.41492373      -1.11111267       1.18946103      -2.59269094       0.58898616      -0.61216760
4
Lattice="3.128588 0.0 0.0 -1.5642939988088433 2.709436998432005 0.0 0.0 0.0 5.016955" Properties=species:S:1:pos:R:3:spacegroup_kinds:I:1:momenta:R:3:forces:R:3 spacegroup="P 1" unit_cell=conventional occupancy="_JSON {\"0\": {\"Al\": 1}, \"1\": {\"Al\": 1}, \"2\": {\"N\": 1}, \"3\": {\"N\": 1}}" energy=-29.574626922607422 free_energy=-29.574626922607422 stress="-0.023617984727025032 -0.014321228489279747 -0.011127971112728119 -0.014321228489279747 0.01502990536391735 -0.0028546396642923355 -0.011127971112728119 -0.0028546396642923355 -0.014440386556088924" pbc="T T T"
Al       1.53421963       0.88369269       2.53780581        0       1.55944033       0.36820890       1.55971020       0.29264250      -0.24000475      -0.91367841
Al      -0.00048007       1.82107762       4.98837344        1       1.01688578       0.86374304      -2.47525447       0.94369507       0.52251577       0.78486657
N        1.63583965       0.96584653       4.40663184        2      -0.31021894      -0.52489308       1.27117404      -1.15103734      -0.78907162       0.05687795
N       -0.01177523       1.75252284       1.90648730        3      -2.26610709      -0.70705886      -0.35562979      -0.08530027       0.50656074       0.07193375
4
Lattice="3.128588 0.0 0.0 -1.5642939988088433 2.709436998432005 0.0 0.0 0.0 5.016955" Properties=species:S:1:pos:R:3:spacegroup_kinds:I:1:momenta:R:3:forces:R:3 spacegroup="P 1" unit_cell=conventional occupancy="_JSON {\"0\": {\"Al\": 1}, \"1\": {\"Al\": 1}, \"2\": {\"N\": 1}, \"3\": {\"N\": 1}}" energy=-29.372072219848633 free_energy=-29.372072219848633 stress="-0.00562971830368042 -0.018719365820288658 0.015849484130740166 -0.018719365820288658 -0.032273001968860626 0.01721225120127201 0.015849484130740166 0.01721225120127201 -0.007298250682651997" pbc="T T T"
Al       1.57072835       0.88046442       2.56331976        0      -0.00039250      -0.37629462      -0.57844062      -1.34386230      -0.44065541      -1.50707936
Al       0.05055072       1.86456080       4.94968571        1       0.52727059       0.77034238       1.04960179      -0.49128920      -1.36433768       1.82584798
N        1.58204799       0.88176660       4.44992391        2      -0.27832274      -1.02263465      -0.55459282       0.15003674       1.16376090      -0.85894930
N       -0.12661086       1.75915456       1.88869863        3      -0.24855528       0.62858691       0.08343155       1.68511534       0.64123207       0.54018044
4
Lattice="3.128588 0.0 0.0 -1.5642939988088433 2.709436998432005 0.0 0.0 0.0 5.016955" Properties=species:S:1:pos:R:3:spacegroup_kinds:I:1:momenta:R:3:forces:R:3 spacegroup="P 1" unit_cell=conventional occupancy="_JSON {\"0\": {\"Al\": 1}, \"1\": {\"Al\": 1}, \"2\": {\"N\": 1}, \"3\": {\"N\": 1}}" energy=-29.596925735473633 free_energy=-29.596925735473633 stress="0.015976624563336372 -0.004506121389567852 0.0060186926275491714 -0.004506121389567852 -0.025499388575553894 -0.004597080405801535 0.0060186926275491714 -0.004597080405801535 -0.010013585910201073" pbc="T T T"
Al       1.53284807       0.86390068       2.51395076        0      -1.59464553      -0.16469676      -1.74991345      -0.27821019       0.89915657      -0.15420558
Al       0.06317844       1.83227868       5.00948380        1       0.38440049      -1.80666600       1.59449881      -0.58708376      -0.41271949       0.16725177
N        1.58572475       0.89623781       4.41422577        2       0.14193172       1.12964957      -0.09119127       0.25704136       0.38076913       0.00228166
N       -0.08152106       1.83862418       1.90381443        3       1.06831337       0.84171322       0.24660581       0.60825264      -0.86720628      -0.01532782
4
Lattice="3.128588 0.0 0.0 -1.5642939988088433 2.709436998432005 0.0 0.0 0.0 5.016955" Properties=species:S:1:pos:R:3:spacegroup_kinds:I:1:momenta:R:3:forces:R:3 spacegroup="P 1" unit_cell=conventional occupancy="_JSON {\"0\": {\"Al\": 1}, \"1\": {\"Al\": 1}, \"2\": {\"N\": 1}, \"3\": {\"N\": 1}}" energy=-29.462553024291992 free_energy=-29.462553024291992 stress="-0.005697194952517748 0.0108494833111763 -0.003906600177288055 0.0108494833111763 -0.01913389563560486 -0.01270323432981968 -0.003906600177288055 -0.01270323432981968 -0.01187137607485056" pbc="T T T"
Al       1.48347329       0.88264393       2.44527929        0      -0.30454523       1.01149455      -0.60004531       0.88393080       0.95768392       1.70777118
Al       0.06164413       1.77681262       5.07306069        1      -0.86715271      -0.75617465       0.43048883      -0.30080575       0.71655333      -1.72280180
N        1.61717709       0.94947182       4.40498429        2       0.38645890       0.04830182       0.18623326      -0.07234056      -0.67486066       0.48910755
N       -0.01486932       1.85626149       1.92266702        3       0.78523907      -0.30362170      -0.01667690      -0.51078451      -0.99937660      -0.47407722
4
Lattice="3.128588 0.0 0.0 -1.5642939988088433 2.709436998432005 0.0 0.0 0.0 5.016955" Properties=species:S:1:pos:R:3:spacegroup_kinds:I:1:momenta:R:3:forces:R:3 spacegroup="P 1" unit_cell=conventional occupancy="_JSON {\"0\": {\"Al\": 1}, \"1\": {\"Al\": 1}, \"2\": {\"N\": 1}, \"3\": {\"N\": 1}}" energy=-29.51875114440918 free_energy=-29.51875114440918 stress="-0.02337072417140007 0.006540038622915745 -0.016098255291581154 0.006540038622915745 0.006697243545204401 -0.0004823652852792293 -0.016098255291581154 -0.0004823652852792293 -0.02216128446161747" pbc="T T T"
Al       1.50607636       0.94974317       2.46463696        0       1.15921341       0.62635255       1.50689932       1.24247599      -0.60704601       1.15697491
Al       0.01335472       1.75088040       5.06242872        1      -0.91112059       0.14825243      -0.88962607       0.51474321       0.69610417      -1.43089008
N        1.62637960       0.90489623       4.42127857        2      -0.14223495      -0.64065026       0.21498350      -0.71771514      -0.51824075      -0.07984792
N        0.02538010       1.82158365       1.88963026        3      -0.10585781      -0.13395470      -0.83225685      -1.03950405       0.42918241       0.35376310
4
Lattice="3.128588 0.0 0.0 -1.5642939988088433 2.709436998432005 0.0 0.0 0.0 5.016955" Properties=species:S:1:pos:R:3:spacegroup_kinds:I:1:momenta:R:3:forces:R:3 spacegroup="P 1" unit_cell=conventional occupancy="_JSON {\"0\": {\"Al\": 1}, \"1\": {\"Al\": 1}, \"2\": {\"N\": 1}, \"3\": {\"N\": 1}}" energy=-29.60500717163086 free_energy=-29.60500717163086 stress="0.0015958023723214865 -0.006785837933421135 -0.003095521591603756 -0.006785837933421135 0.0017806165851652622 0.0017243621405214071 -0.003095521591603756 0.0017243621405214071 -0.02311360463500023" pbc="T T T"
Al       1.56693924       0.93861030       2.54470910        0       1.44875362      -0.98943784       1.48437415      -0.01659270      -0.29131728      -1.20300603
Al      -0.01304569       1.78057347       4.99752451        1       0.01689798       1.11024973      -1.70730000       0.38438916       0.02358121       0.50760370
N        1.58384208       0.87104973       4.42155572        2      -0.67927473      -0.02704971      -0.19037165      -0.39237058       0.15178007      -0.39792359
N        0.00122211       1.81989275       1.85992052        3      -0.78637686      -0.09376223       0.41329738       0.02457420       0.11595583       1.09332561
4
Lattice="3.128588 0.0 0.0 -1.5642939988088433 2.709436998432005 0.0 0.0 0.0 5.016955" Properties=species:S:1:pos:R:3:spacegroup_kinds:I:1:momenta:R:3:forces:R:3 spacegroup="P 1" unit_cell=conventional occupancy="_JSON {\"0\": {\"Al\": 1}, \"1\": {\"Al\": 1}, \"2\": {\"N\": 1}, \"3\": {\"N\": 1}}" energy=-29.470203399658203 free_energy=-29.470203399658203 stress="0.0032032993622124195 -0.01780150644481182 0.011838310398161411 -0.01780150644481182 -0.041349146515131 0.007359916344285011 0.011838310398161411 0.007359916344285011 -0.005160161294043064" pbc="T T T"
Al       1.62755629       0.89950079       2.54516753        0       1.04970780      -0.99981910      -0.80202940      -1.41065180       0.15933201      -0.91778541
Al      -0.00757057       1.81703573       4.95606284        1      -0.03757945       0.11959836      -0.16512765      -0.26242369      -0.84351563       1.41445374
N        1.52756236       0.85151204       4.42065483        2      -0.42752251       0.29023055      -0.07965723       0.31765544       0.98894691      -0.00115140
N       -0.06966668       1.84442109       1.93994532        3      -0.58460585       0.58999011       1.04681425       1.35542011      -0.30476329      -0.49551708
4
Lattice="3.128588 0.0 0.0 -1.5642939988088433 2.709436998432005 0.0 0.0 0.0 5.016955" Properties=species:S:1:pos:R:3:spacegroup_kinds:I:1:momenta:R:3:forces:R:3 spacegroup="P 1" unit_cell=conventional occupancy="_JSON {\"0\": {\"Al\": 1}, \"1\": {\"Al\": 1}, \"2\": {\"N\": 1}, \"3\": {\"N\": 1}}" energy=-29.452985763549805 free_energy=-29.452985763549805 stress="-0.013224730268120766 -0.023750044405460358 0.00791159924119711 -0.023750044405460358 -0.047931741923093796 -0.007333341520279646 0.00791159924119711 -0.007333341520279646 0.028632814064621925" pbc="T T T"
Al       1.63184040       0.85684026       2.46693549        0      -0.97589067      -0.55899621      -1.34838438      -1.39009905       1.11026454       1.17303991
Al      -0.02377742       1.82170281       4.98999599        1      -0.28018801       0.45883522       1.28013570      -0.08532792       0.08283705       0.34697458
N        1.52792695       0.92957751       4.44479005        2       0.11446425       0.97873214       0.08012561       0.22036399      -0.17399019       0.05598432
N       -0.04718867       1.83921505       2.00086007        3       1.14161438      -0.87857121      -0.01187690       1.25506270      -1.01911151      -1.57599902
4
Lattice="3.128588 0.0 0.0 -1.5642939988088433 2.709436998432005 0.0 0.0 0.0 5.016955" Properties=species:S:1:pos:R:3:spacegroup_kinds:I:1:momenta:R:3:forces:R:3 spacegroup="P 1" unit_cell=conventional occupancy="_JSON {\"0\": {\"Al\": 1}, \"1\": {\"Al\": 1}, \"2\": {\"N\": 1}, \"3\": {\"N\": 1}}" energy=-29.53631591796875 free_energy=-29.53631591796875 stress="-0.019857555627822876 0.013828963041305542 -0.005717345513403416 0.013828963041305542 -0.0031640261877328157 -0.0016710123745724559 -0.005717345513403416 -0.0016710123745724559 -0.006260578520596027" pbc="T T T"
Al       1.56291509       0.86348346       2.43836893        0      -1.44558759       0.38889204       0.34074937       0.67285836       0.11609332       1.45909679
Al      -0.01834141       1.83613136       5.05736572        1       0.19731429      -0.00921563       1.04742120       0.06595214       0.15003571      -1.19267416
N        1.54726694       0.95741147       4.47045640        2      -0.01023927       0.05685034       0.14844039       0.09761421      -0.44420862      -0.65174794
N        0.05576966       1.77068665       1.90062728        3       1.25851253      -0.43652683      -1.53661097      -0.83642477       0.17807959       0.38532579
4
Lattice="3.128588 0.0 0.0 -1.5642939988088433 2.709436998432005 0.0 0.0 0.0 5.016955" Properties=species:S:1:pos:R:3:spacegroup_kinds:I:1:momenta:R:3:forces:R:3 spacegroup="P 1" unit_cell=conventional occupancy="_JSON {\"0\": {\"Al\": 1}, \"1\": {\"Al\": 1}, \"2\": {\"N\": 1}, \"3\": {\"N\": 1}}" energy=-29.5310001373291 free_energy=-29.5310001373291 stress="-0.018294015899300575 0.01570751890540123 -0.011607623659074306 0.01570751890540123 0.0031480512116104364 0.004605643916875124 -0.011607623659074306 0.004605643916875124 -0.01725883036851883" pbc="T T T"
Al       1.54701078       0.87273547       2.46070911        0       0.71855760      -0.11584312       0.49435372       1.07476568      -0.28505731       1.06925499
Al      -0.01761630       1.84389393       5.05391119        1       0.19346352       0.17720431      -0.69190240       0.23187649      -0.07941872      -1.16825056
N        1.56395356       0.94331121       4.45961400        2       0.32487500      -0.12409435      -0.51346133      -0.11547049      -0.20503369      -0.72920305
N        0.06831347       1.75176760       1.87546339        3      -1.23689616       0.06273306       0.71101002      -1.19117188       0.56950980       0.82819855
4
Lattice="3.128588 0.0 0.0 -1.5642939988088433 2.709436998432005 0.0 0.0 0.0 5.016955" Properties=species:S:1:pos:R:3:spacegroup_kinds:I:1:momenta:R:3:forces:R:3 spacegroup="P 1" unit_cell=conventional occupancy="_JSON {\"0\": {\"Al\": 1}, \"1\": {\"Al\": 1}, \"2\": {\"N\": 1}, \"3\": {\"N\": 1}}" energy=-29.61321258544922 free_energy=-29.61321258544922 stress="-0.008381819352507591 -0.004276719875633717 0.005492947530001402 -0.004276719875633717 -0.013936893083155155 0.0014804699458181858 0.005492947530001402 0.0014804699458181858 0.012475350871682167" pbc="T T T"
Al       1.57767912       0.87033379       2.48321564        0       0.42145811      -0.10086099       0.75449534      -0.50599504       0.14215247       0.64868546
Al       0.00878679       1.84488740       5.00616575        1       0.94842559       0.04829676      -0.67234735      -0.28190923      -0.37569714       0.05942389
N        1.54733740       0.91884310       4.41695263        2      -0.50233624      -0.06173850      -0.86681668       0.26756731       0.16352361       0.34766811
N       -0.02491946       1.77881438       1.96659668        3      -0.86754750       0.11430266       0.78466874       0.52033693       0.07002103      -1.05577695
4
Lattice="3.128588 0.0 0.0 -1.5642939988088433 2.709436998432005 0.0 0.0 0.0 5.016955" Properties=species:S:1:pos:R:3:spacegroup_kinds:I:1:momenta:R:3:forces:R:3 spacegroup="P 1" unit_cell=conventional occupancy="_JSON {\"0\": {\"Al\": 1}, \"1\": {\"Al\": 1}, \"2\": {\"N\": 1}, \"3\": {\"N\": 1}}" energy=-29.55784034729004 free_energy=-29.55784034729004 stress="-0.01636400632560253 -0.002947635715827346 0.012903761118650436 -0.002947635715827346 -0.006207720376551151 0.001537655363790691 0.012903761118650436 0.001537655363790691 -0.002714552218094468" pbc="T T T"
Al       1.59068813       0.88023426       2.52274591        0      -0.41625677       0.17886981       0.33160934      -0.90884346      -0.14031072      -0.36867821
Al       0.01872291       1.83477378       4.97781986        1       0.14974003      -0.20763042      -0.17578579      -0.72829694      -0.10046437       0.72652507
N        1.52039169       0.92489993       4.39464377        2       0.19754340       0.25939885       0.47781740       0.72475821      -0.09604944       0.71574116
N       -0.04216860       1.77342030       1.96745697        3       0.06897327      -0.23063830      -0.63364090       0.91238225       0.33682424      -1.07358789
4
Lattice="3.128588 0.0 0.0 -1.5642939988088433 2.709436998432005 0.0 0.0 0.0 5.016955" Properties=species:S:1:pos:R:3:spacegroup_kinds:I:1:momenta:R:3:forces:R:3 spacegroup="P 1" unit_cell=conventional occupancy="_JSON {\"0\": {\"Al\": 1}, \"1\": {\"Al\": 1}, \"2\": {\"N\": 1}, \"3\": {\"N\": 1}}" energy=-29.621112823486328 free_energy=-29.621112823486328 stress="-0.02150072529911995 0.005276443902403116 -0.0032674686517566442 0.005276443902403116 0.01065767277032137 0.0019248732132837176 -0.0032674686517566442 0.0019248732132837176 -0.0015897784614935517" pbc="T T T"
Al       1.54767648       0.89587758       2.50832861        0      -0.85809959       0.46896540      -1.00003237       0.39160639      -0.39028966      -0.15032540
Al       0.00665802       1.82067516       5.00342494        1      -0.72966937      -0.11082626       1.46536955      -0.00949861       0.22696906       0.34863153
N        1.57185928       0.94293296       4.45440718        2       0.62349867      -0.37686527       0.64593157      -0.01969842      -0.43335214      -0.83890122
N        0.01256037       1.75229424       1.88600534        3       0.96427023       0.01872611      -1.11126871      -0.36240941       0.59667277       0.64059514
4
Lattice="3.128588 0.0 0.0 -1.5642939988088433 2.709436998432005 0.0 0.0 0.0 5.016955" Properties=species:S:1:pos:R:3:spacegroup_kinds:I:1:momenta:R:3:forces:R:3 spacegroup="P 1" unit_cell=conventional occupancy="_JSON {\"0\": {\"Al\": 1}, \"1\": {\"Al\": 1}, \"2\": {\"N\": 1}, \"3\": {\"N\": 1}}" energy=-29.520856857299805 free_energy=-29.520856857299805 stress="-0.014047493226826191 0.011820846237242222 -0.014255557209253311 0.011820846237242222 -0.0056147160939872265 0.009361503645777702 -0.014255557209253311 0.009361503645777702 -0.019571073353290558" pbc="T T T"
Al       1.52999429       0.91403915       2.46474566        0       0.09545130      -0.23101166      -1.18071451       1.21875060      -0.63577074       0.99289978
Al      -0.00890653       1.82180734       5.05208972        1       0.31216918      -0.10747470       0.45537767       0.39472836      -0.38378537      -1.12710261
N        1.59437710       0.88605553       4.45928983        2      -0.04799001      -0.53350298      -0.20523219      -0.40810651       0.35578984      -0.79021710
N        0.05384447       1.77207216       1.87144999        3      -0.35963052       0.87198934       0.93056902      -1.20537245       0.66376591       0.92441970
4
Lattice="3.128588 0.0 0.0 -1.5642939988088433 2.709436998432005 0.0 0.0 0.0 5.016955" Properties=species:S:1:pos:R:3:spacegroup_kinds:I:1:momenta:R:3:forces:R:3 spacegroup="P 1" unit_cell=conventional occupancy="_JSON {\"0\": {\"Al\": 1}, \"1\": {\"Al\": 1}, \"2\": {\"N\": 1}, \"3\": {\"N\": 1}}" energy=-29.618785858154297 free_energy=-29.618785858154297 stress="0.010117610916495323 -0.0018218961777165532 -0.0018730086740106344 -0.0018218961777165532 -0.024783123284578323 0.004591100849211216 -0.0018730086740106344 0.004591100849211216 2.6388621336081997e-05" pbc="T T T"
Al       1.53818033       0.90928017       2.47247625        0       0.23228480      -0.27447329       1.41733307       0.21200922       0.18702126       0.85530734
Al       0.01802692       1.81430743       5.03506520        1       0.60360843      -0.42930278      -1.11140901       0.03760180      -0.69444102      -0.55142438
N        1.59518014       0.85128049       4.42414651        2       0.09084610       0.02420717      -0.77345413      -0.19470328       0.84070528       0.01228029
N       -0.01452984       1.83034430       1.92467356        3      -0.92673934       0.67956891       0.46753011      -0.05490788      -0.33328539      -0.31616315
4
Lattice="3.128588 0.0 0.0 -1.5642939988088433 2.709436998432005 0.0 0.0 0.0 5.016955" Properties=species:S:1:pos:R:3:spacegroup_kinds:I:1:momenta:R:3:forces:R:3 spacegroup="P 1" unit_cell=conventional occupancy="_JSON {\"0\": {\"Al\": 1}, \"1\": {\"Al\": 1}, \"2\": {\"N\": 1}, \"3\": {\"N\": 1}}" energy=-29.623743057250977 free_energy=-29.623743057250977 stress="0.004300350323319435 -0.008672715164721012 0.0028820557054132223 -0.008672715164721012 -0.006943692918866873 -0.0044344887137413025 0.0028820557054132223 -0.0044344887137413025 -0.014839092269539833" pbc="T T T"
Al       1.54321201       0.89379621       2.53645980        0      -0.00705458      -0.41529139       0.79445062      -0.25250155       0.39302817      -0.87834382
Al       0.03580902       1.79893952       4.98957806        1       0.09337968      -0.29525118      -0.61192002      -0.16601184       0.14058213       0.62745374
N        1.59619756       0.90645096       4.40111851        2      -0.02189855       1.09350642       0.27120747      -0.08899743      -0.09593739       0.34911507
N       -0.05911259       1.83464205       1.91219265        3      -0.06442659      -0.38296383      -0.45373808       0.50751078      -0.43767279      -0.09822496
