4
Lattice="3.128588 0.0 0.0 -1.5642939988088433 2.709436998432005 0.0 0.0 0.0 5.016955" Properties=species:S:1:pos:R:3:spacegroup_kinds:I:1:forces:R:3 spacegroup="P 1" unit_cell=conventional occupancy="_JSON {\"0\": {\"Al\": 1}, \"1\": {\"Al\": 1}, \"2\": {\"N\": 1}, \"3\": {\"N\": 1}}" energy=-29.673717498779297 free_energy=-29.673717498779297 stress="-0.0022254574578255415 -1.3742359215029865e-06 -2.3157927131478573e-08 -1.3742359215029865e-06 -0.0022274202201515436 -3.2444798847564016e-08 -2.3157927131478573e-08 -3.2444798847564016e-08 -0.00545367831364274" pbc="T T T"
Al       1.56429556       0.90314476       2.50490041        0      -0.00003445       0.00002054       0.00553305
Al      -0.00000156       1.80629224       5.01337791        1       0.00003461      -0.00001974       0.00552348
N        1.56429556       0.90314476       4.41849749        2      -0.00003616       0.00002048      -0.00553020
N       -0.00000156       1.80629224       1.91001999        3       0.00003597      -0.00002117      -0.00552607
