4
Lattice="3.128588 0.0 0.0 -1.5642939988088433 2.709436998432005 0.0 0.0 0.0 5.016955" Properties=species:S:1:pos:R:3:spacegroup_kinds:I:1:forces:R:3 spacegroup="P 1" unit_cell=conventional occupancy="_JSON {\"0\": {\"Al\": 1}, \"1\": {\"Al\": 1}, \"2\": {\"N\": 1}, \"3\": {\"N\": 1}}" energy=-29.673717498779297 free_energy=-29.673717498779297 stress="-0.0022252656053751707 -1.2814844012609683e-06 2.5081220655920333e-08 -1.2814844012609683e-06 -0.0022273450158536434 -2.9607305496170966e-09 2.5081220655920333e-08 -2.9607305496170966e-09 -0.0054536499083042145" pbc="T T T"
Al       1.56429556       0.90314476       2.50490041        0      -0.00003513       0.00001937       0.00553157
Al      -0.00000156       1.80629224       5.01337791        1       0.00003302      -0.00002025       0.00552410
N        1.56429556       0.90314476       4.41849749        2      -0.00003468       0.00002088      -0.00553105
N       -0.00000156       1.80629224       1.91001999        3       0.00003668      -0.00002003      -0.00552458
