4
Lattice="3.128588 0.0 0.0 -1.5642939988088433 2.709436998432005 0.0 0.0 0.0 5.016955" Properties=species:S:1:pos:R:3:spacegroup_kinds:I:1:momenta:R:3:forces:R:3 spacegroup="P 1" unit_cell=conventional occupancy="_JSON {\"0\": {\"Al\": 1}, \"1\": {\"Al\": 1}, \"2\": {\"N\": 1}, \"3\": {\"N\": 1}}" energy=-29.623741149902344 free_energy=-29.623741149902344 stress="0.004300396423786879 -0.008672579191625118 0.0028820675797760487 -0.008672579191625118 -0.006943881046026945 -0.004434870555996895 0.0028820675797760487 -0.004434870555996895 -0.014838584698736668" pbc="T T T"
Al       1.54321202       0.89379623       2.53645989        0      -0.00705464      -0.41529076       0.79444778      -0.25249949       0.39303130      -0.87834334
Al       0.03580902       1.79893951       4.98957801        1       0.09337908      -0.29525118      -0.61191809      -0.16601375       0.14058009       0.62745059
N        1.59619756       0.90645093       4.40111849        2      -0.02189786       1.09350652       0.27120834      -0.08899374      -0.09593765       0.34911200
N       -0.05911258       1.83464209       1.91219264        3      -0.06442657      -0.38296459      -0.45373790       0.50750691      -0.43767363      -0.09821930
