4
Lattice="3.128588 0.0 0.0 -1.5642939988088433 2.709436998432005 0.0 0.0 0.0 5.016955" Properties=species:S:1:pos:R:3:spacegroup_kinds:I:1:momenta:R:3:forces:R:3 spacegroup="P 1" unit_cell=conventional occupancy="_JSON {\"0\": {\"Al\": 1}, \"1\": {\"Al\": 1}, \"2\": {\"N\": 1}, \"3\": {\"N\": 1}}" energy=-29.673717498779297 free_energy=-29.673717498779297 stress="-0.0022253775969147682 -1.4322151855594711e-06 -1.2447235242518673e-08 -1.4322151855594711e-06 -0.0022274949587881565 -4.1533915862146387e-08 -1.2447235242518673e-08 -4.1533915862146387e-08 -0.005453674588352442" pbc="T T T"
Al       1.56429556       0.90314476       2.50490041        0       0.68448204       0.53670047       0.91071479      -0.00003538       0.00001976       0.00553358
Al      -0.00000156       1.80629224       5.01337791        1       0.31075784       0.39520501      -1.87833745       0.00003472      -0.00001962       0.00552291
N        1.56429556       0.90314476       4.41849749        2      -0.23293981      -0.79739853      -0.40745139      -0.00003654       0.00002047      -0.00553020
N       -0.00000156       1.80629224       1.91001999        3      -0.76230006      -0.13450696       1.37507406       0.00003728      -0.00002052      -0.00552600
4
Lattice="3.128588 0.0 0.0 -1.5642939988088433 2.709436998432005 0.0 0.0 0.0 5.016955" Properties=species:S:1:pos:R:3:spacegroup_kinds:I:1:momenta:R:3:forces:R:3 spacegroup="P 1" unit_cell=conventional occupancy="_JSON {\"0\": {\"Al\": 1}, \"1\": {\"Al\": 1}, \"2\": {\"N\": 1}, \"3\": {\"N\": 1}}" energy=-29.43359375 free_energy=-29.43359375 stress="-0.013773459009826183 -0.01644640415906906 0.012948784977197647 -0.01644640415906906 -0.02396884560585022 0.009969763457775116 0.012948784977197647 0.009969763457775116 -0.012059425935149193" pbc="T T T"
Al       1.60246141       0.92231283       2.54150849        0       0.57498200      -0.13491999       1.02882493      -1.31301320      -0.49033397      -0.87831438
Al       0.00328788       1.81111139       4.94718774        1      -0.44725817       0.00118069      -1.07867328      -0.30154124      -0.59423393       1.18011916
N        1.53678588       0.85870780       4.38099594        2       0.14052049      -0.46066745       0.20203860       0.28490719       0.67984664       1.25553751
N       -0.05228245       1.80432671       2.00436660        3      -0.26824434       0.59440675      -0.15219025       1.32964742       0.40472096      -1.55734205
4
Lattice="3.128588 0.0 0.0 -1.5642939988088433 2.709436998432005 0.0 0.0 0.0 5.016955" Properties=species:S:1:pos:R:3:spacegroup_kinds:I:1:momenta:R:3:forces:R:3 spacegroup="P 1" unit_cell=conventional occupancy="_JSON {\"0\": {\"Al\": 1}, \"1\": {\"Al\": 1}, \"2\": {\"N\": 1}, \"3\": {\"N\": 1}}" energy=-29.5672550201416 free_energy=-29.5672550201416 stress="0.01291563082486391 0.0017024175031110644 0.003579377895221114 0.0017024175031110644 -0.025857148692011833 -0.005369148217141628 0.003579377895221114 -0.005369148217141628 -0.011435343883931637" pbc="T T T"
Al       1.59598186       0.90138485       2.55101265        0      -0.85003966      -0.64755158      -0.41676316      -0.33522809       0.74370474      -1.26921272
Al      -0.01311800       1.79082859       4.96769657        1      -0.24557026      -0.74327759       1.65595810      -0.18280242      -0.17026791       1.21499634
N        1.52960409       0.86779349       4.41996340        2       0.16413074       0.60763557       0.63654557       0.31887698       0.39321420      -0.09056935
N       -0.00060095       1.87475191       1.90756521        3       0.93147915       0.78319362      -1.87574058       0.19915378      -0.96665102       0.14478558
4
Lattice="3.128588 0.0 0.0 -1.5642939988088433 2.709436998432005 0.0 0.0 0.0 5.016955" Properties=species:S:1:pos:R:3:spacegroup_kinds:I:1:momenta:R:3:forces:R:3 spacegroup="P 1" unit_cell=conventional occupancy="_JSON {\"0\": {\"Al\": 1}, \"1\": {\"Al\": 1}, \"2\": {\"N\": 1}, \"3\": {\"N\": 1}}" energy=-29.40627098083496 free_energy=-29.40627098083496 stress="0.01068869512528181 0.016498202458024025 -0.008164078928530216 0.016498202458024025 -0.009423185139894485 -0.015553932636976242 -0.008164078928530216 -0.015553932636976242 -0.06125416234135628" pbc="T T T"
Al       1.53423928       0.87298461       2.51007452        0      -1.60925390       0.09619226      -1.03262305       0.74608982       1.00298524       0.03482287
Al      -0.01349004       1.78470222       5.05709166        1       0.21561247      -0.04339835       1.72443308       0.02271389       0.40733019      -1.66436934
N        1.55208975       0.92225132       4.42203506        2       0.38659388       0.63935855      -0.93002941       0.04495657      -0.39009830      -0.56986094
N        0.09667396       1.88681816       1.81230439        3       1.00704754      -0.69215248       0.23821934      -0.81376028      -1.02021718       2.19940734
4
Lattice="3.128588 0.0 0.0 -1.5642939988088433 2.709436998432005 0.0 0.0 0.0 5.016955" Properties=species:S:1:pos:R:3:spacegroup_kinds:I:1:momenta:R:3:forces:R:3 spacegroup="P 1" unit_cell=conventional occupancy="_JSON {\"0\": {\"Al\": 1}, \"1\": {\"Al\": 1}, \"2\": {\"N\": 1}, \"3\": {\"N\": 1}}" energy=-29.201902389526367 free_energy=-29.201902389526367 stress="-0.02644110657274723 0.038155697286129 -0.031382445245981216 0.038155697286129 -0.00487750256434083 0.0015437350375577807 -0.031382445245981216 0.0015437350375577807 -0.051819801330566406" pbc="T T T"
Al       1.49382402       0.87740193       2.48150488        0      -0.08661610      -0.02748840       0.25595550       2.48428202      -0.46186769       1.22611654
Al      -0.02076736       1.79337851       5.08843297        1       0.00716748       0.60209067      -1.27068279       0.64723057       0.57433581      -2.36004066
N        1.60157222       0.96971686       4.33361319        2       0.49437250       0.53651025      -0.17473339      -0.53882396      -0.70145512       1.74608815
N        0.13924905       1.81421450       1.89535164        3      -0.41492389      -1.11111254       1.18946078      -2.59268904       0.58898705      -0.61216480
4
Lattice="3.128588 0.0 0.0 -1.5642939988088433 2.709436998432005 0.0 0.0 0.0 5.016955" Properties=species:S:1:pos:R:3:spacegroup_kinds:I:1:momenta:R:3:forces:R:3 spacegroup="P 1" unit_cell=conventional occupancy="_JSON {\"0\": {\"Al\": 1}, \"1\": {\"Al\": 1}, \"2\": {\"N\": 1}, \"3\": {\"N\": 1}}" energy=-29.574628829956055 free_energy=-29.574628829956055 stress="-0.023617854341864586 -0.01432118471711874 -0.011127926409244537 -0.01432118471711874 0.01502990536391735 -0.00285462848842144 -0.011127926409244537 -0.00285462848842144 -0.014440580271184444" pbc="T T T"
Al       1.53421963       0.88369268       2.53780581        0       1.55944035       0.36820843       1.55971049       0.29264331      -0.24000312      -0.91367584
Al      -0.00048006       1.82107763       4.98837343        1       1.01688557       0.86374318      -2.47525530       0.94369560       0.52251333       0.78486139
N        1.63583965       0.96584650       4.40663187        2      -0.31021902      -0.52489329       1.27117405      -1.15103734      -0.78906977       0.05687848
N       -0.01177525       1.75252283       1.90648728        3      -2.26610691      -0.70705837      -0.35562912      -0.08530149       0.50655967       0.07193618
4
Lattice="3.128588 0.0 0.0 -1.5642939988088433 2.709436998432005 0.0 0.0 0.0 5.016955" Properties=species:S:1:pos:R:3:spacegroup_kinds:I:1:momenta:R:3:forces:R:3 spacegroup="P 1" unit_cell=conventional occupancy="_JSON {\"0\": {\"Al\": 1}, \"1\": {\"Al\": 1}, \"2\": {\"N\": 1}, \"3\": {\"N\": 1}}" energy=-29.372072219848633 free_energy=-29.372072219848633 stress="-0.005629735067486763 -0.018719365820288658 0.015849459916353226 -0.018719365820288658 -0.03227287158370018 0.01721222884953022 0.015849459916353226 0.01721222884953022 -0.007298132870346308" pbc="T T T"
Al       1.57072834       0.88046440       2.56331976        0      -0.00039279      -0.37629496      -0.57844041      -1.34386575      -0.44065791      -1.50707650
Al       0.05055072       1.86456080       4.94968568        1       0.52727012       0.77034132       1.04960186      -0.49129167      -1.36433470       1.82584822
N        1.58204798       0.88176659       4.44992393        2      -0.27832253      -1.02263372      -0.55459324       0.15003857       1.16375875      -0.85894883
N       -0.12661085       1.75915459       1.88869868        3      -0.24855482       0.62858733       0.08343184       1.68511868       0.64123398       0.54017764
4
Lattice="3.128588 0.0 0.0 -1.5642939988088433 2.709436998432005 0.0 0.0 0.0 5.016955" Properties=species:S:1:pos:R:3:spacegroup_kinds:I:1:momenta:R:3:forces:R:3 spacegroup="P 1" unit_cell=conventional occupancy="_JSON {\"0\": {\"Al\": 1}, \"1\": {\"Al\": 1}, \"2\": {\"N\": 1}, \"3\": {\"N\": 1}}" energy=-29.596925735473633 free_energy=-29.596925735473633 stress="0.015976496040821075 -0.0045062219724059105 0.006018735468387604 -0.0045062219724059105 -0.025499433279037476 -0.004597070626914501 0.006018735468387604 -0.004597070626914501 -0.010013731196522713" pbc="T T T"
Al       1.53284805       0.86390066       2.51395079        0      -1.59464541      -0.16469607      -1.74991306      -0.27820340       0.89915895      -0.15420523
Al       0.06317842       1.83227864       5.00948378        1       0.38440013      -1.80666629       1.59449944      -0.58708423      -0.41271728       0.16725042
N        1.58572475       0.89623786       4.41422575        2       0.14193177       1.12964952      -0.09119186       0.25704002       0.38076788       0.00228134
N       -0.08152103       1.83862421       1.90381446        3       1.06831350       0.84171279       0.24660546       0.60824770      -0.86720943      -0.01532644
4
Lattice="3.128588 0.0 0.0 -1.5642939988088433 2.709436998432005 0.0 0.0 0.0 5.016955" Properties=species:S:1:pos:R:3:spacegroup_kinds:I:1:momenta:R:3:forces:R:3 spacegroup="P 1" unit_cell=conventional occupancy="_JSON {\"0\": {\"Al\": 1}, \"1\": {\"Al\": 1}, \"2\": {\"N\": 1}, \"3\": {\"N\": 1}}" energy=-29.462553024291992 free_energy=-29.462553024291992 stress="-0.005697422195225954 0.010849443264305592 -0.003906544763594866 0.010849443264305592 -0.019133880734443665 -0.012703162617981434 -0.003906544763594866 -0.012703162617981434 -0.011871499009430408" pbc="T T T"
Al       1.48347328       0.88264397       2.44527932        0      -0.30454493       1.01149543      -0.60004548       0.88393033       0.95768178       1.70776963
Al       0.06164410       1.77681257       5.07306070        1      -0.86715302      -0.75617412       0.43048929      -0.30080655       0.71655309      -1.72279954
N        1.61717711       0.94947185       4.40498426        2       0.38645928       0.04830090       0.18623299      -0.07233989      -0.67485970       0.48910749
N       -0.01486930       1.85626146       1.92266700        3       0.78523869      -0.30362222      -0.01667683      -0.51078409      -0.99937540      -0.47407770
4
Lattice="3.128588 0.0 0.0 -1.5642939988088433 2.709436998432005 0.0 0.0 0.0 5.016955" Properties=species:S:1:pos:R:3:spacegroup_kinds:I:1:momenta:R:3:forces:R:3 spacegroup="P 1" unit_cell=conventional occupancy="_JSON {\"0\": {\"Al\": 1}, \"1\": {\"Al\": 1}, \"2\": {\"N\": 1}, \"3\": {\"N\": 1}}" energy=-29.51875114440918 free_energy=-29.51875114440918 stress="-0.02337082475423813 0.006540087983012199 -0.016098232939839363 0.006540087983012199 0.006697540637105703 -0.0004823526833206415 -0.016098232939839363 -0.0004823526833206415 -0.02216126210987568" pbc="T T T"
Al       1.50607637       0.94974320       2.46463696        0       1.15921349       0.62635165       1.50689836       1.24247622      -0.60704684       1.15697467
Al       0.01335469       1.75088037       5.06242874        1      -0.91111980       0.14825275      -0.88962580       0.51474553       0.69610524      -1.43088877
N        1.62637962       0.90489620       4.42127858        2      -0.14223558      -0.64065073       0.21498387      -0.71771741      -0.51824105      -0.07984907
N        0.02538009       1.82158365       1.88963026        3      -0.10585809      -0.13395367      -0.83225653      -1.03950441       0.42918262       0.35376304
4
Lattice="3.128588 0.0 0.0 -1.5642939988088433 2.709436998432005 0.0 0.0 0.0 5.016955" Properties=species:S:1:pos:R:3:spacegroup_kinds:I:1:momenta:R:3:forces:R:3 spacegroup="P 1" unit_cell=conventional occupancy="_JSON {\"0\": {\"Al\": 1}, \"1\": {\"Al\": 1}, \"2\": {\"N\": 1}, \"3\": {\"N\": 1}}" energy=-29.605010986328125 free_energy=-29.605010986328125 stress="0.0015959845623001456 -0.006785854697227478 -0.003095368156209588 -0.006785854697227478 0.001780627528205514 0.0017244766931980848 -0.003095368156209588 0.0017244766931980848 -0.023114873096346855" pbc="T T T"
Al       1.56693924       0.93861030       2.54470907        0       1.44875323      -0.98943844       1.48437377      -0.01659365      -0.29131460      -1.20299602
Al      -0.01304568       1.78057345       4.99752454        1       0.01689865       1.11024982      -1.70729985       0.38438788       0.02358232       0.50759429
N        1.58384202       0.87104968       4.42155573        2      -0.67927529      -0.02704953      -0.19037170      -0.39236945       0.15178007      -0.39792624
N        0.00122210       1.81989282       1.85992052        3      -0.78637655      -0.09376183       0.41329764       0.02457520       0.11595215       1.09332752
4
Lattice="3.128588 0.0 0.0 -1.5642939988088433 2.709436998432005 0.0 0.0 0.0 5.016955" Properties=species:S:1:pos:R:3:spacegroup_kinds:I:1:momenta:R:3:forces:R:3 spacegroup="P 1" unit_cell=conventional occupancy="_JSON {\"0\": {\"Al\": 1}, \"1\": {\"Al\": 1}, \"2\": {\"N\": 1}, \"3\": {\"N\": 1}}" energy=-29.470205307006836 free_energy=-29.470205307006836 stress="0.0032028257846832275 -0.01780131831765175 0.01183844543993473 -0.01780131831765175 -0.041348956525325775 0.007359892595559359 0.01183844543993473 0.007359892595559359 -0.00516026746481657" pbc="T T T"
Al       1.62755627       0.89950078       2.54516750        0       1.04970763      -0.99981892      -0.80202852      -1.41065204       0.15933165      -0.91779029
Al      -0.00757055       1.81703571       4.95606285        1      -0.03758001       0.11959844      -0.16512832      -0.26242834      -0.84351754       1.41445804
N        1.52756230       0.85151203       4.42065484        2      -0.42752180       0.29023070      -0.07965758       0.31766206       0.98894811      -0.00115366
N       -0.06966666       1.84442116       1.93994535        3      -0.58460577       0.58998981       1.04681439       1.35541844      -0.30476218      -0.49551383
4
Lattice="3.128588 0.0 0.0 -1.5642939988088433 2.709436998432005 0.0 0.0 0.0 5.016955" Properties=species:S:1:pos:R:3:spacegroup_kinds:I:1:momenta:R:3:forces:R:3 spacegroup="P 1" unit_cell=conventional occupancy="_JSON {\"0\": {\"Al\": 1}, \"1\": {\"Al\": 1}, \"2\": {\"N\": 1}, \"3\": {\"N\": 1}}" energy=-29.452985763549805 free_energy=-29.452985763549805 stress="-0.013225105591118336 -0.02375010959804058 0.007911477237939835 -0.02375010959804058 -0.047931719571352005 -0.0073333322070539 0.007911477237939835 -0.0073333322070539 0.028633050620555878" pbc="T T T"
Al       1.63184038       0.85684029       2.46693550        0      -0.97589037      -0.55899522      -1.34838316      -1.39010096       1.11025906       1.17304039
Al      -0.02377744       1.82170280       4.98999597        1      -0.28018884       0.45883540       1.28013455      -0.08532464       0.08283459       0.34697181
N        1.52792699       0.92957749       4.44479005        2       0.11446519       0.97873240       0.08012590       0.22036031      -0.17398681       0.05599262
N       -0.04718869       1.83921502       2.00086011        3       1.14161407      -0.87857254      -0.01187730       1.25506520      -1.01910675      -1.57600498
4
Lattice="3.128588 0.0 0.0 -1.5642939988088433 2.709436998432005 0.0 0.0 0.0 5.016955" Properties=species:S:1:pos:R:3:spacegroup_kinds:I:1:momenta:R:3:forces:R:3 spacegroup="P 1" unit_cell=conventional occupancy="_JSON {\"0\": {\"Al\": 1}, \"1\": {\"Al\": 1}, \"2\": {\"N\": 1}, \"3\": {\"N\": 1}}" energy=-29.536317825317383 free_energy=-29.536317825317383 stress="-0.01985752396285534 0.01382905337959528 -0.0057173678651452065 0.01382905337959528 -0.003163996385410428 -0.001670993398874998 -0.0057173678651452065 -0.001670993398874998 -0.006260589696466923" pbc="T T T"
Al       1.56291508       0.86348348       2.43836898        0      -1.44558807       0.38889080       0.34074967       0.67285895       0.11609326       1.45909631
Al      -0.01834142       1.83613136       5.05736566        1       0.19731507      -0.00921531       1.04742147       0.06595141       0.15003453      -1.19267416
N        1.54726698       0.95741147       4.47045643        2      -0.01024013       0.05685046       0.14844017       0.09761506      -0.44420788      -0.65174747
N        0.05576967       1.77068662       1.90062727        3       1.25851318      -0.43652592      -1.53661131      -0.83642536       0.17808011       0.38532546
4
Lattice="3.128588 0.0 0.0 -1.5642939988088433 2.709436998432005 0.0 0.0 0.0 5.016955" Properties=species:S:1:pos:R:3:spacegroup_kinds:I:1:momenta:R:3:forces:R:3 spacegroup="P 1" unit_cell=conventional occupancy="_JSON {\"0\": {\"Al\": 1}, \"1\": {\"Al\": 1}, \"2\": {\"N\": 1}, \"3\": {\"N\": 1}}" energy=-29.5310001373291 free_energy=-29.5310001373291 stress="-0.01829388737678528 0.015707628801465034 -0.011607719585299492 0.015707628801465034 0.003148159245029092 0.0046056294813752174 -0.011607719585299492 0.0046056294813752174 -0.017258908599615097" pbc="T T T"
Al       1.54701076       0.87273544       2.46070916        0       0.71855762      -0.11584404       0.49435328       1.07476878      -0.28505719       1.06925452
Al      -0.01761627       1.84389395       5.05391117        1       0.19346406       0.17720458      -0.69190093       0.23187591      -0.07941852      -1.16825092
N        1.56395351       0.94331123       4.45961398        2       0.32487432      -0.12409437      -0.51346239      -0.11547028      -0.20503342      -0.72920185
N        0.06831350       1.75176764       1.87546338        3      -1.23689596       0.06273384       0.71101010      -1.19117427       0.56950957       0.82819825
4
Lattice="3.128588 0.0 0.0 -1.5642939988088433 2.709436998432005 0.0 0.0 0.0 5.016955" Properties=species:S:1:pos:R:3:spacegroup_kinds:I:1:momenta:R:3:forces:R:3 spacegroup="P 1" unit_cell=conventional occupancy="_JSON {\"0\": {\"Al\": 1}, \"1\": {\"Al\": 1}, \"2\": {\"N\": 1}, \"3\": {\"N\": 1}}" energy=-29.61321258544922 free_energy=-29.61321258544922 stress="-0.008381684310734272 -0.004276619758456945 0.005492874421179295 -0.004276619758456945 -0.013937074691057205 0.0014804208185523748 0.005492874421179295 0.0014804208185523748 0.012475359253585339" pbc="T T T"
Al       1.57767911       0.87033374       2.48321563        0       0.42145894      -0.10086021       0.75449312      -0.50598776       0.14215511       0.64867741
Al       0.00878681       1.84488742       5.00616580        1       0.94842505       0.04829684      -0.67234588      -0.28190961      -0.37569678       0.05942701
N        1.54733735       0.91884312       4.41695259        2      -0.50233576      -0.06173849      -0.86681632       0.26756757       0.16352433       0.34766790
N       -0.02491944       1.77881443       1.96659666        3      -0.86754821       0.11430187       0.78466913       0.52032971       0.07001738      -1.05577230
4
Lattice="3.128588 0.0 0.0 -1.5642939988088433 2.709436998432005 0.0 0.0 0.0 5.016955" Properties=species:S:1:pos:R:3:spacegroup_kinds:I:1:momenta:R:3:forces:R:3 spacegroup="P 1" unit_cell=conventional occupancy="_JSON {\"0\": {\"Al\": 1}, \"1\": {\"Al\": 1}, \"2\": {\"N\": 1}, \"3\": {\"N\": 1}}" energy=-29.557838439941406 free_energy=-29.557838439941406 stress="-0.01636396162211895 -0.0029476911295205355 0.012903780676424503 -0.0029476911295205355 -0.006207807455211878 0.0015376100782305002 0.012903780676424503 0.0015376100782305002 -0.002714507281780243" pbc="T T T"
Al       1.59068816       0.88023426       2.52274581        0      -0.41625665       0.17887068       0.33160744      -0.90884471      -0.14031005      -0.36867803
Al       0.01872290       1.83477380       4.97781997        1       0.14973958      -0.20763038      -0.17578477      -0.72829902      -0.10046518       0.72652417
N        1.52039169       0.92489994       4.39464376        2       0.19754387       0.25939868       0.47781790       0.72476059      -0.09604911       0.71574116
N       -0.04216863       1.77342026       1.96745698        3       0.06897321      -0.23063904      -0.63364053       0.91238356       0.33682448      -1.07358742
4
Lattice="3.128588 0.0 0.0 -1.5642939988088433 2.709436998432005 0.0 0.0 0.0 5.016955" Properties=species:S:1:pos:R:3:spacegroup_kinds:I:1:momenta:R:3:forces:R:3 spacegroup="P 1" unit_cell=conventional occupancy="_JSON {\"0\": {\"Al\": 1}, \"1\": {\"Al\": 1}, \"2\": {\"N\": 1}, \"3\": {\"N\": 1}}" energy=-29.62111473083496 free_energy=-29.62111473083496 stress="-0.021500632166862488 0.005276503972709179 -0.00326742185279727 0.005276503972709179 0.010657667182385921 0.001925171003676951 -0.00326742185279727 0.001925171003676951 -0.0015898793935775757" pbc="T T T"
Al       1.54767649       0.89587761       2.50832854        0      -0.85810003       0.46896562      -1.00002949       0.39160600      -0.39029178      -0.15032077
Al       0.00665801       1.82067518       5.00342500        1      -0.72966941      -0.11082684       1.46536689      -0.00949925       0.22696605       0.34862784
N        1.57185929       0.94293297       4.45440721        2       0.62349875      -0.37686489       0.64593143      -0.01969772      -0.43335044      -0.83890200
N        0.01256037       1.75229418       1.88600535        3       0.96427071       0.01872611      -1.11126883      -0.36240903       0.59667605       0.64059502
4
Lattice="3.128588 0.0 0.0 -1.5642939988088433 2.709436998432005 0.0 0.0 0.0 5.016955" Properties=species:S:1:pos:R:3:spacegroup_kinds:I:1:momenta:R:3:forces:R:3 spacegroup="P 1" unit_cell=conventional occupancy="_JSON {\"0\": {\"Al\": 1}, \"1\": {\"Al\": 1}, \"2\": {\"N\": 1}, \"3\": {\"N\": 1}}" energy=-29.52085304260254 free_energy=-29.52085304260254 stress="-0.014047626405954361 0.011820959858596325 -0.014255562797188759 0.011820959858596325 -0.005614716559648514 0.009361459873616695 -0.014255562797188759 0.009361459873616695 -0.01957101747393608" pbc="T T T"
Al       1.52999430       0.91403916       2.46474574        0       0.09545149      -0.23101256      -1.18071190       1.21875143      -0.63577014       0.99290067
Al      -0.00890654       1.82180733       5.05208965        1       0.31216940      -0.10747497       0.45537551       0.39472839      -0.38378596      -1.12710178
N        1.59437711       0.88605556       4.45928984        2      -0.04799010      -0.53350321      -0.20523270      -0.40810645       0.35579041      -0.79021788
N        0.05384447       1.77207216       1.87145000        3      -0.35963077       0.87199076       0.93056919      -1.20537305       0.66376543       0.92441893
4
Lattice="3.128588 0.0 0.0 -1.5642939988088433 2.709436998432005 0.0 0.0 0.0 5.016955" Properties=species:S:1:pos:R:3:spacegroup_kinds:I:1:momenta:R:3:forces:R:3 spacegroup="P 1" unit_cell=conventional occupancy="_JSON {\"0\": {\"Al\": 1}, \"1\": {\"Al\": 1}, \"2\": {\"N\": 1}, \"3\": {\"N\": 1}}" energy=-29.618785858154297 free_energy=-29.618785858154297 stress="0.01011768076568842 -0.0018220680067315698 -0.0018730612937361002 -0.0018220680067315698 -0.0247830580919981 0.004591153934597969 -0.0018730612937361002 0.004591153934597969 2.646150278451387e-05" pbc="T T T"
Al       1.53818034       0.90928017       2.47247640        0       0.23228455      -0.27447272       1.41733373       0.21200794       0.18702322       0.85530066
Al       0.01802693       1.81430742       5.03506509        1       0.60360882      -0.42930281      -1.11140817       0.03760214      -0.69444251      -0.55142295
N        1.59518013       0.85128048       4.42414646        2       0.09084582       0.02420674      -0.77345488      -0.19470298       0.84070611       0.01228158
N       -0.01452985       1.83034437       1.92467357        3      -0.92673917       0.67956876       0.46752949      -0.05490706      -0.33328697      -0.31615946
4
Lattice="3.128588 0.0 0.0 -1.5642939988088433 2.709436998432005 0.0 0.0 0.0 5.016955" Properties=species:S:1:pos:R:3:spacegroup_kinds:I:1:momenta:R:3:forces:R:3 spacegroup="P 1" unit_cell=conventional occupancy="_JSON {\"0\": {\"Al\": 1}, \"1\": {\"Al\": 1}, \"2\": {\"N\": 1}, \"3\": {\"N\": 1}}" energy=-29.623741149902344 free_energy=-29.623741149902344 stress="0.004300396423786879 -0.008672579191625118 0.0028820675797760487 -0.008672579191625118 -0.006943881046026945 -0.004434870555996895 0.0028820675797760487 -0.004434870555996895 -0.014838584698736668" pbc="T T T"
Al       1.54321202       0.89379623       2.53645989        0      -0.00705464      -0.41529076       0.79444778      -0.25249949       0.39303130      -0.87834334
Al       0.03580902       1.79893951       4.98957801        1       0.09337908      -0.29525118      -0.61191809      -0.16601375       0.14058009       0.62745059
N        1.59619756       0.90645093       4.40111849        2      -0.02189786       1.09350652       0.27120834      -0.08899374      -0.09593765       0.34911200
N       -0.05911258       1.83464209       1.91219264        3      -0.06442657      -0.38296459      -0.45373790       0.50750691      -0.43767363      -0.09821930
