4
Lattice="3.128588 0.0 0.0 -1.5642939988088433 2.709436998432005 0.0 0.0 0.0 5.016955" Properties=species:S:1:pos:R:3:spacegroup_kinds:I:1:forces:R:3 spacegroup="P 1" unit_cell=conventional occupancy="_JSON {\"0\": {\"Al\": 1}, \"1\": {\"Al\": 1}, \"2\": {\"N\": 1}, \"3\": {\"N\": 1}}" energy=-29.673717498779297 free_energy=-29.673717498779297 stress="-0.0022253775969147682 -1.4322151855594711e-06 -1.2447235242518673e-08 -1.4322151855594711e-06 -0.0022274949587881565 -4.1533915862146387e-08 -1.2447235242518673e-08 -4.1533915862146387e-08 -0.005453674588352442" pbc="T T T"
Al       1.56429556       0.90314476       2.50490041        0      -0.00003538       0.00001976       0.00553358
Al      -0.00000156       1.80629224       5.01337791        1       0.00003472      -0.00001962       0.00552291
N        1.56429556       0.90314476       4.41849749        2      -0.00003654       0.00002047      -0.00553020
N       -0.00000156       1.80629224       1.91001999        3       0.00003728      -0.00002052      -0.00552600
