13
Lattice="7.26870274 0.0 0.0 3.634351370000001 6.294881225397555 0.0 3.634351370000001 2.0982937417991856 5.934870934989993" Properties=species:S:1:pos:R:3:spacegroup_kinds:I:1:momenta:R:3:forces:R:3 spacegroup="P 1" unit_cell=conventional occupancy="_JSON {\"0\": {\"Li\": 1}, \"1\": {\"Li\": 1}, \"2\": {\"Li\": 1}, \"3\": {\"Li\": 1}, \"4\": {\"Li\": 1}, \"5\": {\"Li\": 1}, \"6\": {\"P\": 1}, \"7\": {\"S\": 1}, \"8\": {\"S\": 1}, \"9\": {\"S\": 1}, \"10\": {\"S\": 1}, \"11\": {\"S\": 1}, \"12\": {\"Cl\": 1}}" energy=-53.35108947753906 free_energy=-53.35108947753906 stress="-0.0004221387207508087 -0.0004724619793705642 -0.0004418600001372397 -0.0004724619793705642 -0.0009893450187519193 0.0004269233613740653 -0.0004418600001372397 0.0004269233613740653 0.0009986833902075887" pbc="T T T"
Li       9.16061642       7.20577125       3.18446839        0      -0.22289114      -0.09384192       0.34596709       0.07778724       0.13695668       0.03984757
Li      12.56145140       5.39248256       5.78267451        1      -0.17279910       0.36992234       0.10276948       0.06752302      -0.06306113       0.01378227
Li       9.21881112       5.45821375       5.81299195        2      -0.10886743       0.39423565      -0.27041627      -0.07218989      -0.01939574       0.04494221
Li      12.52385785       7.28006488       3.09316036        3       0.01321191       0.00856503      -0.17780102      -0.00015723      -0.10960288      -0.02436668
Li      10.88516961       4.35971327       3.14332145        4      -0.10856924      -0.41305489      -0.01473529       0.07266288      -0.13289857      -0.02184622
Li      10.78847864       8.20690632       5.77378647        5      -0.47432848       0.01065542      -0.02833720      -0.07232722      -0.04885415      -0.00729599
P        7.27072749       4.18538533       2.96528205        6      -0.18407551      -0.03616646       0.11336525      -0.28655753       0.15563579       0.35130292
S        7.25193962       6.13038519       2.28035529        7      -0.16028977      -0.38666576      -0.50106458      -0.09826769      -0.11466791      -0.07160415
S        8.94499858       3.23784912       2.27476521        8       0.08168811       0.29503663       0.11295692       0.09286094      -0.05164810      -0.09070298
S        5.58486233       3.19900266       2.30125543        9       0.53602902      -0.59701516       0.38404709       0.13301553       0.05057744       0.04131221
S        7.29155863       4.21101307       5.04497159       10      -0.05902059       0.51950018      -0.09190979      -0.02551578      -0.02066388      -0.32850590
S       10.89742473       6.25353236       4.41996322       11      -0.34446476      -0.26651761       0.16772562      -0.04748273       0.34061244       0.15057322
Cl       0.05915204       0.02819192      -0.01442789       12       1.20437700       0.19534659      -0.14256724       0.15864843      -0.12298994      -0.09743852
