13
Lattice="7.26870274 0.0 0.0 3.634351370000001 6.294881225397555 0.0 3.634351370000001 2.0982937417991856 5.934870934989993" Properties=species:S:1:pos:R:3:spacegroup_kinds:I:1:momenta:R:3:forces:R:3 spacegroup="P 1" unit_cell=conventional occupancy="_JSON {\"0\": {\"Li\": 1}, \"1\": {\"Li\": 1}, \"2\": {\"Li\": 1}, \"3\": {\"Li\": 1}, \"4\": {\"Li\": 1}, \"5\": {\"Li\": 1}, \"6\": {\"P\": 1}, \"7\": {\"S\": 1}, \"8\": {\"S\": 1}, \"9\": {\"S\": 1}, \"10\": {\"S\": 1}, \"11\": {\"S\": 1}, \"12\": {\"Cl\": 1}}" energy=-53.3634147644043 free_energy=-53.3634147644043 stress="-0.0007942027878016233 -2.426693868073926e-07 -1.555304010025793e-07 -2.426693868073926e-07 -0.0007939295610412955 -1.0589531029836508e-07 -1.555304010025793e-07 -1.0589531029836508e-07 -0.0007939040078781545" pbc="T T T"
Li       9.25387995       7.24703237       3.10460814        0       0.00000000       0.00000000       0.00000000       0.00422491      -0.00243401       0.00344690
Li      12.55222827       5.34273008       5.79769826        1       0.00000000       0.00000000       0.00000000      -0.00421020       0.00243246      -0.00344050
Li       9.25387995       5.34273008       5.79769826        2       0.00000000       0.00000000       0.00000000       0.00422413       0.00243855      -0.00344642
Li      12.55222827       7.24703237       3.10460814        3       0.00000000       0.00000000       0.00000000      -0.00421231      -0.00243089       0.00344117
Li      10.90305411       4.39057894       3.10460814        4       0.00000000       0.00000000       0.00000000       0.00000247       0.00487550       0.00344773
Li      10.90305411       8.19918351       5.79769826        5       0.00000000       0.00000000       0.00000000       0.00000193      -0.00486322      -0.00344114
P        7.26870274       4.19658748       2.96743547        6       0.00000000       0.00000000       0.00000000       0.00008533       0.00004582       0.00003606
S        7.26870637       6.13578650       2.28182731        7       0.00000000       0.00000000       0.00000000      -0.00001833      -0.01090859       0.00384719
S        8.94810016       3.22699113       2.28182731        8       0.00000000       0.00000000       0.00000000      -0.00945769       0.00544033       0.00384719
S        5.58931258       3.22699113       2.28182731        9       0.00000000       0.00000000       0.00000000       0.00937820       0.00541326       0.00383047
S        7.26870637       4.19658958       5.02426588       10       0.00000000       0.00000000       0.00000000      -0.00001818      -0.00000965      -0.01156905
S       10.90305411       6.29488123       4.45115320       11       0.00000000       0.00000000       0.00000000      -0.00000136      -0.00000091      -0.00000109
Cl       0.00000000       0.00000000       0.00000000       12       0.00000000       0.00000000       0.00000000       0.00000108       0.00000139       0.00000150
13
Lattice="7.26870274 0.0 0.0 3.634351370000001 6.294881225397555 0.0 3.634351370000001 2.0982937417991856 5.934870934989993" Properties=species:S:1:pos:R:3:spacegroup_kinds:I:1:momenta:R:3:forces:R:3 spacegroup="P 1" unit_cell=conventional occupancy="_JSON {\"0\": {\"Li\": 1}, \"1\": {\"Li\": 1}, \"2\": {\"Li\": 1}, \"3\": {\"Li\": 1}, \"4\": {\"Li\": 1}, \"5\": {\"Li\": 1}, \"6\": {\"P\": 1}, \"7\": {\"S\": 1}, \"8\": {\"S\": 1}, \"9\": {\"S\": 1}, \"10\": {\"S\": 1}, \"11\": {\"S\": 1}, \"12\": {\"Cl\": 1}}" energy=-53.363311767578125 free_energy=-53.363311767578125 stress="-0.0007787334616295993 -1.8369348254054785e-05 -5.180099105928093e-05 -1.8369348254054785e-05 -0.0006989819230511785 -2.280303669977002e-05 -5.180099105928093e-05 -2.280303669977002e-05 -0.0008497966337017715" pbc="T T T"
Li       9.25496539       7.24738847       3.10385614        0       0.03747572       0.04654369       0.01541031       0.00176784      -0.00697390       0.00250360
Li      12.55173085       5.34337411       5.79648986        1      -0.05333031       0.07719981      -0.01758134      -0.00002160      -0.00037243       0.00009855
Li       9.25093035       5.34247359       5.79944666        2      -0.14480739      -0.04256685       0.11056374       0.01752533       0.01010839      -0.01360360
Li      12.55014363       7.24782662       3.10305182        3      -0.10911542      -0.00519933      -0.04485761      -0.00079231      -0.00768379       0.00161441
Li      10.90408462       4.38968130       3.10297894        4       0.09329444       0.02332106      -0.00776912      -0.00549353       0.01425299       0.00991411
Li      10.90162732       8.19774496       5.79804192        5      -0.13304043      -0.12653424       0.01280835      -0.00083307       0.00194795      -0.00061242
P        7.26856030       4.19565575       2.96762663        6       0.01514490      -0.23773542       0.09248501       0.01172587       0.02459108      -0.01517480
S        7.26873335       6.13614616       2.28212808        7      -0.08884796       0.09635915      -0.00175539      -0.00225028      -0.02591627       0.00797675
S        8.94842500       3.22651963       2.28166489        8      -0.02774604      -0.16987688      -0.15792421      -0.01561522       0.00827129       0.00003747
S        5.58887747       3.22700483       2.28198511        9      -0.04938237      -0.07573887       0.02257014       0.01180927       0.00106543       0.00563698
S        7.26995892       4.19677423       5.02359834       10       0.27441601       0.11203910      -0.15517670      -0.01158044      -0.00867688       0.00025751
S       10.90296049       6.29524988       4.45128215       11       0.05220483       0.06268062      -0.05763900      -0.00795755      -0.00973464      -0.00138071
Cl       0.00011820       0.00052062       0.00070711       12       0.13373400       0.23950818       0.18886582       0.00171569      -0.00087920       0.00273208
13
Lattice="7.26870274 0.0 0.0 3.634351370000001 6.294881225397555 0.0 3.634351370000001 2.0982937417991856 5.934870934989993" Properties=species:S:1:pos:R:3:spacegroup_kinds:I:1:momenta:R:3:forces:R:3 spacegroup="P 1" unit_cell=conventional occupancy="_JSON {\"0\": {\"Li\": 1}, \"1\": {\"Li\": 1}, \"2\": {\"Li\": 1}, \"3\": {\"Li\": 1}, \"4\": {\"Li\": 1}, \"5\": {\"Li\": 1}, \"6\": {\"P\": 1}, \"7\": {\"S\": 1}, \"8\": {\"S\": 1}, \"9\": {\"S\": 1}, \"10\": {\"S\": 1}, \"11\": {\"S\": 1}, \"12\": {\"Cl\": 1}}" energy=-53.362709045410156 free_energy=-53.362709045410156 stress="-0.0005843097460456192 -8.644980880490039e-06 -6.374016811605543e-05 -8.644980880490039e-06 -0.0006097092409618199 -8.857117791194469e-05 -6.374016811605543e-05 -8.857117791194469e-05 -0.000970028224401176" pbc="T T T"
Li       9.25553673       7.24761702       3.10266153        0       0.03882003      -0.03230273      -0.01728429      -0.00320319      -0.01328950       0.00035116
Li      12.55113206       5.34668708       5.79850304        1       0.02725011       0.05272932       0.14096499       0.00805503      -0.00584526      -0.01003443
Li       9.24594347       5.34199690       5.80507690        2      -0.15205813       0.00843916       0.16037650       0.04274607       0.02359245      -0.03935212
Li      12.54563456       7.24735762       3.10348155        3      -0.12625926      -0.06983397       0.07867167       0.01675436      -0.00291507      -0.01272031
Li      10.90878290       4.39377718       3.10334131        4       0.18050211       0.17574311       0.02125210      -0.02359384       0.00037201       0.00088744
Li      10.89775643       8.19399278       5.79850165        5      -0.06726728      -0.12332828       0.05928729      -0.00398250       0.01754133       0.00410887
P        7.26920540       4.19381700       2.96789126        6       0.17077264      -0.13247847      -0.06005423       0.00948156       0.05481232      -0.03035217
S        7.26730997       6.13577774       2.28223136        7      -0.16802890      -0.13213861      -0.05138663      -0.00287188      -0.04205868       0.01513340
S        8.94860301       3.22584468       2.27949646        8      -0.01503484       0.07817818      -0.45329251      -0.01007403       0.01193432       0.01619495
S        5.58760735       3.22669826       2.28228069        9      -0.27641552       0.02608078       0.08956433       0.02471391       0.00054361       0.02062066
S        7.27212113       4.19672109       5.02336442       10       0.24151997      -0.18262243       0.03630534      -0.03019319      -0.02275504       0.00501713
S       10.90341783       6.29550294       4.45011608       11       0.06594687       0.03839314      -0.27903013      -0.03197945      -0.01737789       0.02274252
Cl       0.00117112       0.00255272       0.00188231       12       0.08025220       0.29314079       0.27462556       0.00414708      -0.00455461       0.00740287
13
Lattice="7.26870274 0.0 0.0 3.634351370000001 6.294881225397555 0.0 3.634351370000001 2.0982937417991856 5.934870934989993" Properties=species:S:1:pos:R:3:spacegroup_kinds:I:1:momenta:R:3:forces:R:3 spacegroup="P 1" unit_cell=conventional occupancy="_JSON {\"0\": {\"Li\": 1}, \"1\": {\"Li\": 1}, \"2\": {\"Li\": 1}, \"3\": {\"Li\": 1}, \"4\": {\"Li\": 1}, \"5\": {\"Li\": 1}, \"6\": {\"P\": 1}, \"7\": {\"S\": 1}, \"8\": {\"S\": 1}, \"9\": {\"S\": 1}, \"10\": {\"S\": 1}, \"11\": {\"S\": 1}, \"12\": {\"Cl\": 1}}" energy=-53.36125183105469 free_energy=-53.36125183105469 stress="-0.00044649996561929584 0.00020010489970445633 4.338078360888176e-05 0.00020010489970445633 -0.0006431184010580182 -0.0002141866716556251 4.338078360888176e-05 -0.0002141866716556251 -0.001033967942930758" pbc="T T T"
Li       9.25816435       7.24649271       3.10296074        0       0.13605187      -0.02718894       0.02176895      -0.01691423      -0.01177496      -0.01074553
Li      12.55463982       5.34692653       5.80016595        1       0.10883265      -0.00308323      -0.02475835      -0.00207087      -0.00072401      -0.02537415
Li       9.24216061       5.34341503       5.81149103        2      -0.04731455       0.01388572       0.15682622       0.05933049       0.03161306      -0.06389922
Li      12.54272296       7.24527196       3.10483947        3      -0.06986853      -0.06839775       0.04634572       0.03476360       0.01481935      -0.03002629
Li      10.91644980       4.40055649       3.10606786        4       0.22910499       0.18189149       0.14145897      -0.04955692      -0.03233127      -0.02071306
Li      10.89601522       8.18919931       5.80054386        5      -0.03166335      -0.11429817       0.09798193      -0.00416309       0.02989525       0.00113274
P        7.27020070       4.19286148       2.96772775        6       0.15916618      -0.09821609       0.05182748      -0.01936641       0.06613424      -0.02076777
S        7.26627279       6.13517760       2.28229378        7      -0.07666488       0.05892082      -0.08342067      -0.00391613      -0.04038981       0.02397205
S        8.94757486       3.22765991       2.27642258        8      -0.35931028       0.05953379      -0.34528002       0.02148774      -0.00193277       0.03567646
S        5.58567975       3.22615942       2.28349871        9      -0.26989191       0.04387012       0.14242582       0.04681934       0.00502441       0.03684309
S        7.27341027       4.19540750       5.02417923       10       0.09303644      -0.17315148       0.26348190      -0.03239563      -0.03325759      -0.00984092
S       10.90408524       6.29492529       4.44734850       11       0.18416239      -0.18540083      -0.46780158      -0.04057334      -0.01796957       0.07200951
Cl       0.00098059       0.00447825       0.00263033       12      -0.05564104       0.31163455      -0.00085637       0.00655544      -0.00910636       0.01173306
13
Lattice="7.26870274 0.0 0.0 3.634351370000001 6.294881225397555 0.0 3.634351370000001 2.0982937417991856 5.934870934989993" Properties=species:S:1:pos:R:3:spacegroup_kinds:I:1:momenta:R:3:forces:R:3 spacegroup="P 1" unit_cell=conventional occupancy="_JSON {\"0\": {\"Li\": 1}, \"1\": {\"Li\": 1}, \"2\": {\"Li\": 1}, \"3\": {\"Li\": 1}, \"4\": {\"Li\": 1}, \"5\": {\"Li\": 1}, \"6\": {\"P\": 1}, \"7\": {\"S\": 1}, \"8\": {\"S\": 1}, \"9\": {\"S\": 1}, \"10\": {\"S\": 1}, \"11\": {\"S\": 1}, \"12\": {\"Cl\": 1}}" energy=-53.358516693115234 free_energy=-53.358516693115234 stress="-0.0004184921854175627 0.00043871451634913683 0.0002260553155792877 0.00043871451634913683 -0.0005573606467805803 -0.0003709651355165988 0.0002260553155792877 -0.0003709651355165988 -0.0009471235098317266" pbc="T T T"
Li       9.26135243       7.24645383       3.10353943        0       0.06210855      -0.00743815      -0.03134444      -0.03208993      -0.01115958      -0.02211440
Li      12.55882621       5.34579200       5.79935752        1       0.12643113      -0.01428038       0.00555755      -0.01517013       0.00577504      -0.02989830
Li       9.24028621       5.34480842       5.81415203        2      -0.04154381       0.08934773       0.05601781       0.06954914       0.03510632      -0.07050546
Li      12.54048475       7.24410729       3.10821863        3      -0.03815084      -0.03688524       0.07163764       0.05689049       0.02887784      -0.04641231
Li      10.92332402       4.40755070       3.11187340        4       0.12214454       0.22538376       0.17059747      -0.07238240      -0.08334245      -0.05345720
Li      10.89282757       8.18800607       5.80227925        5      -0.10330787       0.02561645      -0.05011314      -0.00496411       0.02209719      -0.00598218
P        7.27161832       4.19132221       2.96804787        6       0.20968812      -0.24134223       0.21974198      -0.06911227       0.11063141      -0.01319059
S        7.26572889       6.13627204       2.28262140        7      -0.10001933       0.18230349       0.10659088      -0.00394939      -0.06946471       0.04258312
S        8.94531517       3.22829557       2.27452480        8      -0.13955260      -0.10246181      -0.25442964       0.06716990      -0.01483908       0.04372709
S        5.58337625       3.22600510       2.28539437        9      -0.46449662      -0.15290539       0.25055005       0.07174605       0.01528864       0.04660809
S        7.27468211       4.19482636       5.02627248       10       0.21344919      -0.02339933       0.32317587      -0.02944555      -0.04098508      -0.03765772
S       10.90518202       6.29188846       4.44313600       11       0.09032163      -0.41454828      -0.59703089      -0.04775903       0.01343178       0.13410868
Cl       0.00092830       0.00674643       0.00147664       12       0.06292792       0.47060938      -0.27095114       0.00951729      -0.01141732       0.01219120
13
Lattice="7.26870274 0.0 0.0 3.634351370000001 6.294881225397555 0.0 3.634351370000001 2.0982937417991856 5.934870934989993" Properties=species:S:1:pos:R:3:spacegroup_kinds:I:1:momenta:R:3:forces:R:3 spacegroup="P 1" unit_cell=conventional occupancy="_JSON {\"0\": {\"Li\": 1}, \"1\": {\"Li\": 1}, \"2\": {\"Li\": 1}, \"3\": {\"Li\": 1}, \"4\": {\"Li\": 1}, \"5\": {\"Li\": 1}, \"6\": {\"P\": 1}, \"7\": {\"S\": 1}, \"8\": {\"S\": 1}, \"9\": {\"S\": 1}, \"10\": {\"S\": 1}, \"11\": {\"S\": 1}, \"12\": {\"Cl\": 1}}" energy=-53.35498046875 free_energy=-53.35498046875 stress="-0.00014808156993240118 0.0006277665961533785 0.0003737921651918441 0.0006277665961533785 -0.00040583754889667034 -0.0004676675016526133 0.0003737921651918441 -0.0004676675016526133 -0.00088263931684196" pbc="T T T"
Li       9.26177677       7.24506890       3.10350745        0      -0.04759449      -0.07855596       0.00572839      -0.03614502      -0.00855255      -0.02580421
Li      12.56406426       5.34623557       5.79658744        1       0.11019634       0.02977538      -0.14617564      -0.02975554       0.01327004      -0.02370823
Li       9.23919471       5.34561935       5.81697171        2       0.00289191      -0.00003486       0.12059463       0.08223672       0.03922036      -0.07217364
Li      12.53876254       7.24328347       3.10950816        3      -0.02990377       0.02764751       0.00484181       0.07006112       0.03572907      -0.05646791
Li      10.92551792       4.41493355       3.11672960        4       0.03081786       0.14581769       0.20050840      -0.08036053      -0.13978326      -0.08913799
Li      10.88866850       8.19037805       5.79969313        5      -0.17069382       0.07079237      -0.05910772      -0.00728150       0.00189348      -0.00287493
P        7.27294205       4.19058070       2.97033595        6       0.03450570      -0.04099470       0.25452727      -0.12275115       0.12777060      -0.06702743
S        7.26519982       6.13788342       2.28259980        7      -0.17750180       0.20924692      -0.13107928      -0.00511731      -0.11231264       0.05656791
S        8.94352603       3.22705557       2.27329593        8      -0.31547120      -0.15723636      -0.03823844       0.08549994      -0.00653815       0.05419665
S        5.58048952       3.22437576       2.28753166        9      -0.27021736      -0.27905279       0.19550352       0.11374508       0.04780971       0.07113079
S        7.27610222       4.19523770       5.02817810       10       0.23167763       0.17353098       0.25869566      -0.02409868      -0.04235941      -0.04194106
S       10.90637938       6.28804901       4.43967641       11       0.34170522      -0.51824242      -0.29412126      -0.05824011       0.05867136       0.18423763
Cl       0.00190345       0.00982364      -0.00068443       12       0.25958776       0.41730625      -0.37167733       0.01220698      -0.01481847       0.01300247
13
Lattice="7.26870274 0.0 0.0 3.634351370000001 6.294881225397555 0.0 3.634351370000001 2.0982937417991856 5.934870934989993" Properties=species:S:1:pos:R:3:spacegroup_kinds:I:1:momenta:R:3:forces:R:3 spacegroup="P 1" unit_cell=conventional occupancy="_JSON {\"0\": {\"Li\": 1}, \"1\": {\"Li\": 1}, \"2\": {\"Li\": 1}, \"3\": {\"Li\": 1}, \"4\": {\"Li\": 1}, \"5\": {\"Li\": 1}, \"6\": {\"P\": 1}, \"7\": {\"S\": 1}, \"8\": {\"S\": 1}, \"9\": {\"S\": 1}, \"10\": {\"S\": 1}, \"11\": {\"S\": 1}, \"12\": {\"Cl\": 1}}" energy=-53.351112365722656 free_energy=-53.351112365722656 stress="-4.307587005314417e-06 0.0007196972728706896 0.00046538448077626526 0.0007196972728706896 -0.0003244538966100663 -0.0005956190288998187 0.00046538448077626526 -0.0005956190288998187 -0.0007450285484082997" pbc="T T T"
Li       9.25917703       7.24256724       3.10373521        0      -0.05911337      -0.07534256       0.02773724      -0.03199884      -0.00729351      -0.02381839
Li      12.56916921       5.34687401       5.78935081        1       0.14361809       0.01911866      -0.24565180      -0.03781324       0.01733610       0.00368194
Li       9.24026273       5.34871498       5.82116098        2       0.05162335       0.13123420       0.10527349       0.08630081       0.03865983      -0.07923951
Li      12.53844655       7.24346142       3.10965405        3      -0.03413784      -0.00482029      -0.02922130       0.07504346       0.03992534      -0.06188041
Li      10.92709379       4.42030979       3.12241124        4       0.06241798       0.15635335       0.15400909      -0.08686528      -0.19351952      -0.12238362
Li      10.88113854       8.19191549       5.79630434        5      -0.22350449      -0.02698685      -0.08987334      -0.01126778      -0.01073059       0.00109027
P        7.27283693       4.18940099       2.97245696        6       0.15593478      -0.16964153       0.24492382      -0.14012942       0.15280326      -0.10190348
S        7.26313623       6.13877299       2.28177055        7      -0.38845709       0.18630275      -0.08399065      -0.00401951      -0.15221161       0.06717814
S        8.94199970       3.22620463       2.27319378        8      -0.23250801       0.00808027      -0.01665671       0.09330231       0.00540604       0.05063179
S        5.57836465       3.22295078       2.28946634        9      -0.27815830      -0.13093504       0.33247619       0.13177258       0.06396008       0.09248785
S        7.27758100       4.19688303       5.03054519       10       0.14618705       0.20478266       0.31194447      -0.01515363      -0.04742335      -0.05373193
S       10.90876933       6.28390526       4.43667601       11       0.27864305      -0.63348106      -0.40475000      -0.07806407       0.11134353       0.21721147
Cl       0.00410179       0.01268110      -0.00272164       12       0.37745481       0.33533546      -0.30622048       0.01889258      -0.01825578       0.01067591
13
Lattice="7.26870274 0.0 0.0 3.634351370000001 6.294881225397555 0.0 3.634351370000001 2.0982937417991856 5.934870934989993" Properties=species:S:1:pos:R:3:spacegroup_kinds:I:1:momenta:R:3:forces:R:3 spacegroup="P 1" unit_cell=conventional occupancy="_JSON {\"0\": {\"Li\": 1}, \"1\": {\"Li\": 1}, \"2\": {\"Li\": 1}, \"3\": {\"Li\": 1}, \"4\": {\"Li\": 1}, \"5\": {\"Li\": 1}, \"6\": {\"P\": 1}, \"7\": {\"S\": 1}, \"8\": {\"S\": 1}, \"9\": {\"S\": 1}, \"10\": {\"S\": 1}, \"11\": {\"S\": 1}, \"12\": {\"Cl\": 1}}" energy=-53.34724807739258 free_energy=-53.34724807739258 stress="0.00010566330456640571 0.0008949292823672295 0.0005691326223313808 0.0008949292823672295 -0.00019583498942665756 -0.0006929304217919707 0.0005691326223313808 -0.0006929304217919707 -0.00047486182302236557" pbc="T T T"
Li       9.25724861       7.23998050       3.10617881        0      -0.06608308      -0.11195874       0.10134438      -0.03889532      -0.00186102      -0.02878582
Li      12.57346829       5.34746027       5.78092880        1       0.11480478       0.01626306      -0.22313203      -0.04506737       0.02096103       0.02940238
Li       9.24258512       5.35344354       5.82780375        2       0.07620247       0.21605995       0.22786221       0.08039993       0.03362786      -0.09349190
Li      12.53761804       7.24357813       3.10886308        3      -0.01235700      -0.00993002       0.00723225       0.07616033       0.04108177      -0.06536770
Li      10.92770446       4.42122727       3.12858539        4      -0.01041864      -0.06183024       0.15731714      -0.08882193      -0.22997433      -0.14150140
Li      10.87343617       8.19181168       5.79249671        5      -0.14656465       0.03038398      -0.07049737      -0.01541739      -0.01128470       0.00976839
P        7.27423100       4.18827946       2.97354844        6       0.14840937      -0.10777502       0.01303824      -0.18551311       0.18043673      -0.09990733
S        7.26063633       6.13980641       2.28106382        7      -0.32836133       0.15008681      -0.11377334       0.00347276      -0.19128525       0.07421593
S        8.94116567       3.22573406       2.27278913        8      -0.06083214      -0.07880670      -0.02242470       0.10638500       0.00833581       0.03815006
S        5.57666169       3.22105315       2.29120147        9      -0.27137853      -0.27117116       0.08001666       0.16114996       0.08161674       0.11897968
S        7.27865101       4.19836079       5.03363409       10       0.06348902       0.22806886       0.38459546       0.00226306      -0.05304139      -0.08942866
S       10.90914470       6.28118539       4.43389768       11       0.02965264      -0.28426579      -0.20975921      -0.08299430       0.14212590       0.24186613
Cl       0.00684664       0.01530875      -0.00492976       12       0.46343709       0.28487501      -0.33181966       0.02687849      -0.02073911       0.00610032
13
Lattice="7.26870274 0.0 0.0 3.634351370000001 6.294881225397555 0.0 3.634351370000001 2.0982937417991856 5.934870934989993" Properties=species:S:1:pos:R:3:spacegroup_kinds:I:1:momenta:R:3:forces:R:3 spacegroup="P 1" unit_cell=conventional occupancy="_JSON {\"0\": {\"Li\": 1}, \"1\": {\"Li\": 1}, \"2\": {\"Li\": 1}, \"3\": {\"Li\": 1}, \"4\": {\"Li\": 1}, \"5\": {\"Li\": 1}, \"6\": {\"P\": 1}, \"7\": {\"S\": 1}, \"8\": {\"S\": 1}, \"9\": {\"S\": 1}, \"10\": {\"S\": 1}, \"11\": {\"S\": 1}, \"12\": {\"Cl\": 1}}" energy=-53.344627380371094 free_energy=-53.344627380371094 stress="0.00021978637960273772 0.0010273189982399344 0.0006041732267476618 0.0010273189982399344 -6.810266495449468e-05 -0.0006543448544107378 0.0006041732267476618 -0.0006543448544107378 -0.00026842052466236055" pbc="T T T"
Li       9.25307267       7.23588913       3.11244604        0      -0.16034097      -0.14120799       0.17063510      -0.04520050       0.01149537      -0.03444831
Li      12.57604296       5.34892186       5.77382320        1       0.08718393       0.02412313      -0.14858186      -0.04659564       0.02025612       0.05043744
Li       9.24176820       5.36216954       5.83558871        2      -0.06053186       0.29354609       0.24261004       0.07436839       0.03156958      -0.11681960
Li      12.53747789       7.24687906       3.10942580        3      -0.04620400       0.18647815       0.04492410       0.07118154       0.03223944      -0.06157605
Li      10.92824303       4.41771102       3.13238650        4       0.03690126      -0.08773480       0.12188349      -0.08918817      -0.23994406      -0.14213213
Li      10.86688731       8.19382313       5.79184238        5      -0.20406488       0.15514481      -0.03728216      -0.01909704      -0.02247830       0.00289689
P        7.27532120       4.18771170       2.97299259        6       0.06622529      -0.09613063      -0.16932560      -0.22207755       0.19181553      -0.06841187
S        7.25796922       6.14053355       2.28052577        7      -0.29855596      -0.04188571       0.07117370       0.00847644      -0.21353242       0.07732187
S        8.94143361       3.22560827       2.27351447        8      -0.03144104       0.05551001       0.11413084       0.11177198       0.01282445       0.01420121
S        5.57566249       3.21879168       2.29189776        9      -0.01474476      -0.33508453       0.08447419       0.18932198       0.08848040       0.14480579
S        7.27987119       4.19952804       5.03558705       10       0.32428805       0.06891485       0.23467095       0.01262497      -0.05222244      -0.12751129
S       10.90857521       6.27826063       4.43125975       11      -0.31415243      -0.40051221      -0.49050566      -0.08178057       0.16764188       0.26371089
Cl       0.01006332       0.01737915      -0.00667886       12       0.61543737       0.31883884      -0.23880711       0.03619415      -0.02814557      -0.00247480
13
Lattice="7.26870274 0.0 0.0 3.634351370000001 6.294881225397555 0.0 3.634351370000001 2.0982937417991856 5.934870934989993" Properties=species:S:1:pos:R:3:spacegroup_kinds:I:1:momenta:R:3:forces:R:3 spacegroup="P 1" unit_cell=conventional occupancy="_JSON {\"0\": {\"Li\": 1}, \"1\": {\"Li\": 1}, \"2\": {\"Li\": 1}, \"3\": {\"Li\": 1}, \"4\": {\"Li\": 1}, \"5\": {\"Li\": 1}, \"6\": {\"P\": 1}, \"7\": {\"S\": 1}, \"8\": {\"S\": 1}, \"9\": {\"S\": 1}, \"10\": {\"S\": 1}, \"11\": {\"S\": 1}, \"12\": {\"Cl\": 1}}" energy=-53.34228515625 free_energy=-53.34228515625 stress="0.00038558951928280294 0.0010686921887099743 0.000629856891464442 0.0010686921887099743 -0.0002476941153872758 -0.00045792950550094247 0.000629856891464442 -0.00045792950550094247 -0.0001767219218891114" pbc="T T T"
Li       9.24679430       7.23186258       3.12011600        0      -0.26008973      -0.12568572       0.19075846      -0.04960904       0.02707252      -0.03709902
Li      12.57721313       5.35148552       5.77132645        1       0.11577902       0.18027173       0.03001855      -0.04467638       0.01559685       0.05428021
Li       9.23990789       5.37350830       5.84303966        2      -0.07147365       0.36787936       0.16371118       0.06450154       0.02976336      -0.13937575
Li      12.53357904       7.25187286       3.11147893        3      -0.09977667       0.05748635       0.02959065       0.07822952       0.02131767      -0.06599202
Li      10.92916286       4.41486817       3.13479689        4       0.01603470      -0.03762121       0.02988786      -0.09155181      -0.25105435      -0.14362654
Li      10.85837209       8.19994749       5.79025551        5      -0.27544955       0.20301228      -0.05689160      -0.02634523      -0.05265849      -0.00318263
P        7.27525962       4.18797304       2.97182335        6       0.01758541       0.04163416      -0.14907670      -0.24128617       0.16860020      -0.02241785
S        7.25634087       6.13946214       2.28136820        7      -0.30868846      -0.16644768       0.13437260      -0.00435972      -0.19382887       0.06451853
S        8.94132339       3.22636739       2.27404087        8       0.01496450       0.07327596      -0.00713522       0.11808332       0.01225426      -0.00375460
S        5.57460021       3.21614629       2.29249614        9      -0.26059124      -0.41024872       0.09264387       0.21192086       0.09321636       0.16683817
S        7.28245721       4.19907504       5.03685841       10       0.36480708      -0.06518421       0.20470004       0.01004900      -0.03391016      -0.15858196
S       10.90616980       6.27459941       4.42792601       11      -0.24825496      -0.51068477      -0.33653304      -0.07343251       0.20216940       0.29918396
Cl       0.01611213       0.02002284      -0.00854497       12       0.99515357       0.39231250      -0.32604663       0.04847662      -0.03853883      -0.01079034
13