13
Lattice="7.26870274 0.0 0.0 3.634351370000001 6.294881225397555 0.0 3.634351370000001 2.0982937417991856 5.934870934989993" Properties=species:S:1:pos:R:3:spacegroup_kinds:I:1:forces:R:3 spacegroup="P 1" unit_cell=conventional occupancy="_JSON {\"0\": {\"Li\": 1}, \"1\": {\"Li\": 1}, \"2\": {\"Li\": 1}, \"3\": {\"Li\": 1}, \"4\": {\"Li\": 1}, \"5\": {\"Li\": 1}, \"6\": {\"P\": 1}, \"7\": {\"S\": 1}, \"8\": {\"S\": 1}, \"9\": {\"S\": 1}, \"10\": {\"S\": 1}, \"11\": {\"S\": 1}, \"12\": {\"Cl\": 1}}" energy=-53.3634147644043 free_energy=-53.3634147644043 stress="-0.0007942027878016233 -2.426693868073926e-07 -1.555304010025793e-07 -2.426693868073926e-07 -0.0007939295610412955 -1.0589531029836508e-07 -1.555304010025793e-07 -1.0589531029836508e-07 -0.0007939040078781545" pbc="T T T"
Li       9.25387995       7.24703237       3.10460814        0       0.00422491      -0.00243401       0.00344690
Li      12.55222827       5.34273008       5.79769826        1      -0.00421020       0.00243246      -0.00344050
Li       9.25387995       5.34273008       5.79769826        2       0.00422413       0.00243855      -0.00344642
Li      12.55222827       7.24703237       3.10460814        3      -0.00421231      -0.00243089       0.00344117
Li      10.90305411       4.39057894       3.10460814        4       0.00000247       0.00487550       0.00344773
Li      10.90305411       8.19918351       5.79769826        5       0.00000193      -0.00486322      -0.00344114
P        7.26870274       4.19658748       2.96743547        6       0.00008533       0.00004582       0.00003606
S        7.26870637       6.13578650       2.28182731        7      -0.00001833      -0.01090859       0.00384719
S        8.94810016       3.22699113       2.28182731        8      -0.00945769       0.00544033       0.00384719
S        5.58931258       3.22699113       2.28182731        9       0.00937820       0.00541326       0.00383047
S        7.26870637       4.19658958       5.02426588       10      -0.00001818      -0.00000965      -0.01156905
S       10.90305411       6.29488123       4.45115320       11      -0.00000136      -0.00000091      -0.00000109
Cl       0.00000000       0.00000000       0.00000000       12       0.00000108       0.00000139       0.00000150
