4
Lattice="3.128588 0.0 0.0 -1.5642939988088433 2.709436998432005 0.0 0.0 0.0 5.016955" Properties=species:S:1:pos:R:3:spacegroup_kinds:I:1:momenta:R:3:forces:R:3 spacegroup="P 1" unit_cell=conventional occupancy="_JSON {\"0\": {\"Al\": 1}, \"1\": {\"Al\": 1}, \"2\": {\"N\": 1}, \"3\": {\"N\": 1}}" energy=-29.623743057250977 free_energy=-29.623743057250977 stress="0.004300331696867943 -0.008672819472849369 0.0028819008730351925 -0.008672819472849369 -0.006943767424672842 -0.004434459842741489 0.0028819008730351925 -0.004434459842741489 -0.014839187264442444" pbc="T T T"
Al       1.54321201       0.89379622       2.53645983        0      -0.00705459      -0.41529119       0.79445028      -0.25250313       0.39302984      -0.87834424
Al       0.03580901       1.79893953       4.98957805        1       0.09338009      -0.29525091      -0.61192045      -0.16600834       0.14057806       0.62745172
N        1.59619758       0.90645094       4.40111849        2      -0.02189884       1.09350623       0.27120840      -0.08900145      -0.09593505       0.34911299
N       -0.05911262       1.83464209       1.91219260        3      -0.06442665      -0.38296412      -0.45373822       0.50751275      -0.43767288      -0.09822054
