4
Lattice="3.128588 0.0 0.0 -1.5642939988088433 2.709436998432005 0.0 0.0 0.0 5.016955" Properties=species:S:1:pos:R:3:spacegroup_kinds:I:1:momenta:R:3:forces:R:3 spacegroup="P 1" unit_cell=conventional occupancy="_JSON {\"0\": {\"Al\": 1}, \"1\": {\"Al\": 1}, \"2\": {\"N\": 1}, \"3\": {\"N\": 1}}" energy=-29.673715591430664 free_energy=-29.673715591430664 stress="-0.0022254541981965303 -1.3770912801192026e-06 -1.5342864756462404e-08 -1.3770912801192026e-06 -0.002227388322353363 -5.065290409334011e-08 -1.5342864756462404e-08 -5.065290409334011e-08 -0.005453676450997591" pbc="T T T"
Al       1.56429556       0.90314476       2.50490041        0       0.68448204       0.53670047       0.91071479      -0.00003494       0.00002032       0.00553223
Al      -0.00000156       1.80629224       5.01337791        1       0.31075784       0.39520501      -1.87833745       0.00003395      -0.00001953       0.00552443
N        1.56429556       0.90314476       4.41849749        2      -0.23293981      -0.79739853      -0.40745139      -0.00003551       0.00002010      -0.00553034
N       -0.00000156       1.80629224       1.91001999        3      -0.76230006      -0.13450696       1.37507406       0.00003647      -0.00002096      -0.00552607
4
Lattice="3.128588 0.0 0.0 -1.5642939988088433 2.709436998432005 0.0 0.0 0.0 5.016955" Properties=species:S:1:pos:R:3:spacegroup_kinds:I:1:momenta:R:3:forces:R:3 spacegroup="P 1" unit_cell=conventional occupancy="_JSON {\"0\": {\"Al\": 1}, \"1\": {\"Al\": 1}, \"2\": {\"N\": 1}, \"3\": {\"N\": 1}}" energy=-29.43359375 free_energy=-29.43359375 stress="-0.013773559592664242 -0.016446474939584732 0.012948713265359402 -0.016446474939584732 -0.02396886795759201 0.009969725273549557 0.012948713265359402 0.009969725273549557 -0.012059325352311134" pbc="T T T"
Al       1.60246141       0.92231283       2.54150849        0       0.57498219      -0.13492005       1.02882452      -1.31301332      -0.49033454      -0.87831402
Al       0.00328789       1.81111140       4.94718775        1      -0.44725797       0.00118076      -1.07867295      -0.30154097      -0.59423274       1.18011928
N        1.53678587       0.85870779       4.38099594        2       0.14052020      -0.46066744       0.20203868       0.28490758       0.67984581       1.25553560
N       -0.05228245       1.80432672       2.00436659        3      -0.26824443       0.59440669      -0.15219027       1.32964694       0.40472144      -1.55734086
4
Lattice="3.128588 0.0 0.0 -1.5642939988088433 2.709436998432005 0.0 0.0 0.0 5.016955" Properties=species:S:1:pos:R:3:spacegroup_kinds:I:1:momenta:R:3:forces:R:3 spacegroup="P 1" unit_cell=conventional occupancy="_JSON {\"0\": {\"Al\": 1}, \"1\": {\"Al\": 1}, \"2\": {\"N\": 1}, \"3\": {\"N\": 1}}" energy=-29.5672550201416 free_energy=-29.5672550201416 stress="0.012915716506540775 0.0017024959670379758 0.003579330164939165 0.0017024959670379758 -0.025857094675302505 -0.0053692106157541275 0.003579330164939165 -0.0053692106157541275 -0.01143545564264059" pbc="T T T"
Al       1.59598186       0.90138485       2.55101263        0      -0.85003981      -0.64755162      -0.41676318      -0.33522663       0.74370253      -1.26921034
Al      -0.01311799       1.79082858       4.96769659        1      -0.24557016      -0.74327802       1.65595800      -0.18280281      -0.17026711       1.21499431
N        1.52960407       0.86779351       4.41996342        2       0.16413055       0.60763599       0.63654585       0.31887764       0.39321378      -0.09056687
N       -0.00060095       1.87475190       1.90756520        3       0.93147937       0.78319365      -1.87574070       0.19915171      -0.96664912       0.14478311
4
Lattice="3.128588 0.0 0.0 -1.5642939988088433 2.709436998432005 0.0 0.0 0.0 5.016955" Properties=species:S:1:pos:R:3:spacegroup_kinds:I:1:momenta:R:3:forces:R:3 spacegroup="P 1" unit_cell=conventional occupancy="_JSON {\"0\": {\"Al\": 1}, \"1\": {\"Al\": 1}, \"2\": {\"N\": 1}, \"3\": {\"N\": 1}}" energy=-29.406274795532227 free_energy=-29.406274795532227 stress="0.010688675567507744 0.016498183831572533 -0.00816403329372406 0.016498183831572533 -0.009423271752893925 -0.015554026700556278 -0.00816403329372406 -0.015554026700556278 -0.061254072934389114" pbc="T T T"
Al       1.53423929       0.87298460       2.51007450        0      -1.60925373       0.09619210      -1.03262269       0.74608845       1.00298762       0.03482395
Al      -0.01349004       1.78470221       5.05709166        1       0.21561192      -0.04339784       1.72443216       0.02271175       0.40733004      -1.66436946
N        1.55208974       0.92225135       4.42203510        2       0.38659424       0.63935803      -0.93002912       0.04495847      -0.39009762      -0.56986201
N        0.09667396       1.88681817       1.81230437        3       1.00704753      -0.69215233       0.23821956      -0.81375849      -1.02022004       2.19940782
4
Lattice="3.128588 0.0 0.0 -1.5642939988088433 2.709436998432005 0.0 0.0 0.0 5.016955" Properties=species:S:1:pos:R:3:spacegroup_kinds:I:1:momenta:R:3:forces:R:3 spacegroup="P 1" unit_cell=conventional occupancy="_JSON {\"0\": {\"Al\": 1}, \"1\": {\"Al\": 1}, \"2\": {\"N\": 1}, \"3\": {\"N\": 1}}" energy=-29.201902389526367 free_energy=-29.201902389526367 stress="-0.02644100785255432 0.03815576061606407 -0.031382471323013306 0.03815576061606407 -0.004877691622823477 0.0015436579706147313 -0.031382471323013306 0.0015436579706147313 -0.05182000994682312" pbc="T T T"
Al       1.49382404       0.87740193       2.48150489        0      -0.08661640      -0.02748774       0.25595583       2.48428249      -0.46186665       1.22611594
Al      -0.02076739       1.79337852       5.08843294        1       0.00716701       0.60209104      -1.27068288       0.64723116       0.57433367      -2.36004162
N        1.60157225       0.96971684       4.33361319        2       0.49437292       0.53650980      -0.17473416      -0.53882450      -0.70145321       1.74609089
N        0.13924905       1.81421451       1.89535168        3      -0.41492353      -1.11111315       1.18946112      -2.59268951       0.58898622      -0.61216545
4
Lattice="3.128588 0.0 0.0 -1.5642939988088433 2.709436998432005 0.0 0.0 0.0 5.016955" Properties=species:S:1:pos:R:3:spacegroup_kinds:I:1:momenta:R:3:forces:R:3 spacegroup="P 1" unit_cell=conventional occupancy="_JSON {\"0\": {\"Al\": 1}, \"1\": {\"Al\": 1}, \"2\": {\"N\": 1}, \"3\": {\"N\": 1}}" energy=-29.574626922607422 free_energy=-29.574626922607422 stress="-0.023617995902895927 -0.014321357943117619 -0.011127976700663567 -0.014321357943117619 0.0150300869718194 -0.002854581456631422 -0.011127976700663567 -0.002854581456631422 -0.014440302737057209" pbc="T T T"
Al       1.53421965       0.88369270       2.53780583        0       1.55944074       0.36820865       1.55970997       0.29264334      -0.24000415      -0.91367650
Al      -0.00048009       1.82107764       4.98837341        1       1.01688611       0.86374297      -2.47525434       0.94369549       0.52251518       0.78486603
N        1.63583966       0.96584647       4.40663183        2      -0.31021968      -0.52489320       1.27117428      -1.15103805      -0.78907120       0.05687816
N       -0.01177523       1.75252280       1.90648730        3      -2.26610716      -0.70705846      -0.35562999      -0.08530077       0.50656033       0.07193230
4
Lattice="3.128588 0.0 0.0 -1.5642939988088433 2.709436998432005 0.0 0.0 0.0 5.016955" Properties=species:S:1:pos:R:3:spacegroup_kinds:I:1:momenta:R:3:forces:R:3 spacegroup="P 1" unit_cell=conventional occupancy="_JSON {\"0\": {\"Al\": 1}, \"1\": {\"Al\": 1}, \"2\": {\"N\": 1}, \"3\": {\"N\": 1}}" energy=-29.372068405151367 free_energy=-29.372068405151367 stress="-0.005629499442875385 -0.018719322979450226 0.015849437564611435 -0.018719322979450226 -0.032272763550281525 0.017212307080626488 0.015849437564611435 0.017212307080626488 -0.007298250682651997" pbc="T T T"
Al       1.57072837       0.88046441       2.56331974        0      -0.00039252      -0.37629519      -0.57844132      -1.34386635      -0.44065961      -1.50707710
Al       0.05055071       1.86456080       4.94968570        1       0.52727069       0.77034138       1.04960221      -0.49128735      -1.36433887       1.82584786
N        1.58204794       0.88176659       4.44992393        2      -0.27832310      -1.02263361      -0.55459229       0.15003499       1.16376317      -0.85894758
N       -0.12661086       1.75915458       1.88869863        3      -0.24855508       0.62858743       0.08343137       1.68511868       0.64123547       0.54017699
4
Lattice="3.128588 0.0 0.0 -1.5642939988088433 2.709436998432005 0.0 0.0 0.0 5.016955" Properties=species:S:1:pos:R:3:spacegroup_kinds:I:1:momenta:R:3:forces:R:3 spacegroup="P 1" unit_cell=conventional occupancy="_JSON {\"0\": {\"Al\": 1}, \"1\": {\"Al\": 1}, \"2\": {\"N\": 1}, \"3\": {\"N\": 1}}" energy=-29.596923828125 free_energy=-29.596923828125 stress="0.015976417809724808 -0.0045059919357299805 0.006018668878823519 -0.0045059919357299805 -0.02549951709806919 -0.00459715211763978 0.006018668878823519 -0.00459715211763978 -0.010013926774263382" pbc="T T T"
Al       1.53284808       0.86390064       2.51395073        0      -1.59464566      -0.16469671      -1.74991306      -0.27820784       0.89915878      -0.15420628
Al       0.06317842       1.83227864       5.00948381        1       0.38439985      -1.80666630       1.59449881      -0.58708441      -0.41271487       0.16725180
N        1.58572473       0.89623787       4.41422579        2       0.14193229       1.12964959      -0.09119159       0.25704125       0.38076502       0.00228063
N       -0.08152105       1.83862423       1.90381443        3       1.06831352       0.84171339       0.24660583       0.60825092      -0.86720896      -0.01532620
4
Lattice="3.128588 0.0 0.0 -1.5642939988088433 2.709436998432005 0.0 0.0 0.0 5.016955" Properties=species:S:1:pos:R:3:spacegroup_kinds:I:1:momenta:R:3:forces:R:3 spacegroup="P 1" unit_cell=conventional occupancy="_JSON {\"0\": {\"Al\": 1}, \"1\": {\"Al\": 1}, \"2\": {\"N\": 1}, \"3\": {\"N\": 1}}" energy=-29.462554931640625 free_energy=-29.462554931640625 stress="-0.005697098560631275 0.010849392972886562 -0.00390660623088479 0.010849392972886562 -0.01913372427225113 -0.012703207321465015 -0.00390660623088479 -0.012703207321465015 -0.011871437542140484" pbc="T T T"
Al       1.48347330       0.88264394       2.44527930        0      -0.30454531       1.01149551      -0.60004473       0.88392997       0.95768356       1.70777023
Al       0.06164409       1.77681258       5.07306070        1      -0.86715282      -0.75617379       0.43048916      -0.30080670       0.71655351      -1.72279990
N        1.61717710       0.94947185       4.40498425        2       0.38645908       0.04830086       0.18623231      -0.07233927      -0.67486012       0.48910761
N       -0.01486930       1.85626148       1.92266702        3       0.78523903      -0.30362259      -0.01667679      -0.51078403      -0.99937701      -0.47407764
4
Lattice="3.128588 0.0 0.0 -1.5642939988088433 2.709436998432005 0.0 0.0 0.0 5.016955" Properties=species:S:1:pos:R:3:spacegroup_kinds:I:1:momenta:R:3:forces:R:3 spacegroup="P 1" unit_cell=conventional occupancy="_JSON {\"0\": {\"Al\": 1}, \"1\": {\"Al\": 1}, \"2\": {\"N\": 1}, \"3\": {\"N\": 1}}" energy=-29.51875114440918 free_energy=-29.51875114440918 stress="-0.02337074838578701 0.006539960391819477 -0.016098221763968468 0.006539960391819477 0.006697163917124271 -0.00048240175237879157 -0.016098221763968468 -0.00048240175237879157 -0.02216128446161747" pbc="T T T"
Al       1.50607638       0.94974319       2.46463697        0       1.15921326       0.62635237       1.50689895       1.24247479      -0.60704476       1.15697384
Al       0.01335469       1.75088039       5.06242873        1      -0.91112020       0.14825268      -0.88962586       0.51474667       0.69610476      -1.43088961
N        1.62637961       0.90489620       4.42127853        2      -0.14223516      -0.64065063       0.21498387      -0.71771836      -0.51824069      -0.07984781
N        0.02538009       1.82158363       1.88963025        3      -0.10585792      -0.13395439      -0.83225700      -1.03950322       0.42918080       0.35376352
4
Lattice="3.128588 0.0 0.0 -1.5642939988088433 2.709436998432005 0.0 0.0 0.0 5.016955" Properties=species:S:1:pos:R:3:spacegroup_kinds:I:1:momenta:R:3:forces:R:3 spacegroup="P 1" unit_cell=conventional occupancy="_JSON {\"0\": {\"Al\": 1}, \"1\": {\"Al\": 1}, \"2\": {\"N\": 1}, \"3\": {\"N\": 1}}" energy=-29.605009078979492 free_energy=-29.605009078979492 stress="0.0015957800205796957 -0.006785889621824026 -0.003095488529652357 -0.006785889621824026 0.001780583756044507 0.001724296249449253 -0.003095488529652357 0.001724296249449253 -0.02311367355287075" pbc="T T T"
Al       1.56693925       0.93861031       2.54470909        0       1.44875330      -0.98943835       1.48437377      -0.01659296      -0.29131663      -1.20300567
Al      -0.01304570       1.78057346       4.99752453        1       0.01689830       1.11024973      -1.70730004       0.38438773       0.02358366       0.50760305
N        1.58384204       0.87104970       4.42155569        2      -0.67927485      -0.02704950      -0.19037139      -0.39236969       0.15177788      -0.39792404
N        0.00122210       1.81989275       1.85992051        3      -0.78637676      -0.09376183       0.41329753       0.02457504       0.11595514       1.09332657
4
Lattice="3.128588 0.0 0.0 -1.5642939988088433 2.709436998432005 0.0 0.0 0.0 5.016955" Properties=species:S:1:pos:R:3:spacegroup_kinds:I:1:momenta:R:3:forces:R:3 spacegroup="P 1" unit_cell=conventional occupancy="_JSON {\"0\": {\"Al\": 1}, \"1\": {\"Al\": 1}, \"2\": {\"N\": 1}, \"3\": {\"N\": 1}}" energy=-29.470205307006836 free_energy=-29.470205307006836 stress="0.0032028143759816885 -0.017801502719521523 0.011838452890515327 -0.017801502719521523 -0.04134921357035637 0.007359924726188183 0.011838452890515327 0.007359924726188183 -0.005160166881978512" pbc="T T T"
Al       1.62755627       0.89950078       2.54516752        0       1.04970729      -0.99981921      -0.80202931      -1.41065359       0.15933241      -0.91778904
Al      -0.00757056       1.81703572       4.95606284        1      -0.03757915       0.11959832      -0.16512832      -0.26242781      -0.84351814       1.41445744
N        1.52756231       0.85151202       4.42065485        2      -0.42752248       0.29023065      -0.07965682       0.31766123       0.98894870      -0.00115387
N       -0.06966666       1.84442112       1.93994531        3      -0.58460564       0.58999027       1.04681437       1.35542035      -0.30476299      -0.49551433
4
Lattice="3.128588 0.0 0.0 -1.5642939988088433 2.709436998432005 0.0 0.0 0.0 5.016955" Properties=species:S:1:pos:R:3:spacegroup_kinds:I:1:momenta:R:3:forces:R:3 spacegroup="P 1" unit_cell=conventional occupancy="_JSON {\"0\": {\"Al\": 1}, \"1\": {\"Al\": 1}, \"2\": {\"N\": 1}, \"3\": {\"N\": 1}}" energy=-29.452985763549805 free_energy=-29.452985763549805 stress="-0.013224869966506958 -0.023750077933073044 0.007911534048616886 -0.023750077933073044 -0.047931697219610214 -0.0073333196341991425 0.007911534048616886 -0.0073333196341991425 0.02863282524049282" pbc="T T T"
Al       1.63184038       0.85684027       2.46693548        0      -0.97589028      -0.55899559      -1.34838410      -1.39010108       1.11026084       1.17304122
Al      -0.02377742       1.82170280       4.98999598        1      -0.28018838       0.45883532       1.28013546      -0.08532801       0.08283597       0.34697694
N        1.52792695       0.92957750       4.44479004        2       0.11446493       0.97873235       0.08012504       0.22036420      -0.17398800       0.05598721
N       -0.04718869       1.83921504       2.00086010        3       1.14161371      -0.87857206      -0.01187641       1.25506473      -1.01910889      -1.57600522
4
Lattice="3.128588 0.0 0.0 -1.5642939988088433 2.709436998432005 0.0 0.0 0.0 5.016955" Properties=species:S:1:pos:R:3:spacegroup_kinds:I:1:momenta:R:3:forces:R:3 spacegroup="P 1" unit_cell=conventional occupancy="_JSON {\"0\": {\"Al\": 1}, \"1\": {\"Al\": 1}, \"2\": {\"N\": 1}, \"3\": {\"N\": 1}}" energy=-29.536317825317383 free_energy=-29.536317825317383 stress="-0.019857551902532578 0.013829011470079422 -0.005717397201806307 0.013829011470079422 -0.003164113499224186 -0.001671041827648878 -0.005717397201806307 -0.001671041827648878 -0.0062606679275631905" pbc="T T T"
Al       1.56291507       0.86348348       2.43836894        0      -1.44558784       0.38889141       0.34074953       0.67285836       0.11609477       1.45909595
Al      -0.01834141       1.83613135       5.05736569        1       0.19731440      -0.00921560       1.04742110       0.06595258       0.15003505      -1.19267416
N        1.54726697       0.95741148       4.47045639        2      -0.01023937       0.05685059       0.14844042       0.09761453      -0.44420850      -0.65174776
N        0.05576964       1.77068662       1.90062730        3       1.25851276      -0.43652638      -1.53661108      -0.83642542       0.17807856       0.38532615
4
Lattice="3.128588 0.0 0.0 -1.5642939988088433 2.709436998432005 0.0 0.0 0.0 5.016955" Properties=species:S:1:pos:R:3:spacegroup_kinds:I:1:momenta:R:3:forces:R:3 spacegroup="P 1" unit_cell=conventional occupancy="_JSON {\"0\": {\"Al\": 1}, \"1\": {\"Al\": 1}, \"2\": {\"N\": 1}, \"3\": {\"N\": 1}}" energy=-29.5310001373291 free_energy=-29.5310001373291 stress="-0.018293891102075577 0.015707578510046005 -0.01160773728042841 0.015707578510046005 0.0031479825265705585 0.004605656955391169 -0.01160773728042841 0.004605656955391169 -0.01725904457271099" pbc="T T T"
Al       1.54701075       0.87273545       2.46070912        0       0.71855745      -0.11584360       0.49435363       1.07476795      -0.28505617       1.06925416
Al      -0.01761629       1.84389393       5.05391120        1       0.19346362       0.17720458      -0.69190135       0.23187748      -0.07941942      -1.16825151
N        1.56395357       0.94331123       4.45961399        2       0.32487482      -0.12409454      -0.51346158      -0.11547192      -0.20503217      -0.72920179
N        0.06831347       1.75176763       1.87546338        3      -1.23689596       0.06273359       0.71100926      -1.19117355       0.56950796       0.82819927
4
Lattice="3.128588 0.0 0.0 -1.5642939988088433 2.709436998432005 0.0 0.0 0.0 5.016955" Properties=species:S:1:pos:R:3:spacegroup_kinds:I:1:momenta:R:3:forces:R:3 spacegroup="P 1" unit_cell=conventional occupancy="_JSON {\"0\": {\"Al\": 1}, \"1\": {\"Al\": 1}, \"2\": {\"N\": 1}, \"3\": {\"N\": 1}}" energy=-29.61321258544922 free_energy=-29.61321258544922 stress="-0.008381711319088936 -0.00427680229768157 0.005492847878485918 -0.00427680229768157 -0.013937050476670265 0.0014804236125200987 0.005492847878485918 0.0014804236125200987 0.012475426308810711" pbc="T T T"
Al       1.57767909       0.87033376       2.48321563        0       0.42145855      -0.10086061       0.75449485      -0.50598878       0.14215288       0.64867616
Al       0.00878681       1.84488741       5.00616578        1       0.94842610       0.04829709      -0.67234734      -0.28190908      -0.37569755       0.05942861
N        1.54733739       0.91884310       4.41695259        2      -0.50233687      -0.06173862      -0.86681674       0.26756641       0.16352586       0.34766686
N       -0.02491946       1.77881442       1.96659663        3      -0.86754784       0.11430217       0.78466921       0.52033138       0.07001860      -1.05577123
4
Lattice="3.128588 0.0 0.0 -1.5642939988088433 2.709436998432005 0.0 0.0 0.0 5.016955" Properties=species:S:1:pos:R:3:spacegroup_kinds:I:1:momenta:R:3:forces:R:3 spacegroup="P 1" unit_cell=conventional occupancy="_JSON {\"0\": {\"Al\": 1}, \"1\": {\"Al\": 1}, \"2\": {\"N\": 1}, \"3\": {\"N\": 1}}" energy=-29.55784034729004 free_energy=-29.55784034729004 stress="-0.01636395789682865 -0.002947687404230237 0.012903725728392601 -0.002947687404230237 -0.006207800004631281 0.0015376093797385693 0.012903725728392601 0.0015376093797385693 -0.002714473521336913" pbc="T T T"
Al       1.59068813       0.88023427       2.52274587        0      -0.41625610       0.17887047       0.33160838      -0.90884405      -0.14030890      -0.36867666
Al       0.01872294       1.83477380       4.97781989        1       0.14973996      -0.20763033      -0.17578582      -0.72829771      -0.10046445       0.72652376
N        1.52039165       0.92489993       4.39464373        2       0.19754329       0.25939888       0.47781769       0.72475898      -0.09604990       0.71574205
N       -0.04216864       1.77342027       1.96745698        3       0.06897282      -0.23063897      -0.63364021       0.91238290       0.33682311      -1.07358909
4
Lattice="3.128588 0.0 0.0 -1.5642939988088433 2.709436998432005 0.0 0.0 0.0 5.016955" Properties=species:S:1:pos:R:3:spacegroup_kinds:I:1:momenta:R:3:forces:R:3 spacegroup="P 1" unit_cell=conventional occupancy="_JSON {\"0\": {\"Al\": 1}, \"1\": {\"Al\": 1}, \"2\": {\"N\": 1}, \"3\": {\"N\": 1}}" energy=-29.62111473083496 free_energy=-29.62111473083496 stress="-0.021500837057828903 0.005276455078274012 -0.0032674188259989023 0.005276455078274012 0.01065768115222454 0.0019249327015131712 -0.0032674188259989023 0.0019249327015131712 -0.0015899355057626963" pbc="T T T"
Al       1.54767648       0.89587761       2.50832859        0      -0.85809982       0.46896568      -1.00003158       0.39160532      -0.39029157      -0.15032491
Al       0.00665804       1.82067518       5.00342491        1      -0.72966986      -0.11082667       1.46536810      -0.00949887       0.22696985       0.34863013
N        1.57185925       0.94293296       4.45440721        2       0.62349917      -0.37686500       0.64593210      -0.01969825      -0.43335336      -0.83890074
N        0.01256034       1.75229419       1.88600538        3       0.96427053       0.01872604      -1.11126859      -0.36240816       0.59667504       0.64059585
4
Lattice="3.128588 0.0 0.0 -1.5642939988088433 2.709436998432005 0.0 0.0 0.0 5.016955" Properties=species:S:1:pos:R:3:spacegroup_kinds:I:1:momenta:R:3:forces:R:3 spacegroup="P 1" unit_cell=conventional occupancy="_JSON {\"0\": {\"Al\": 1}, \"1\": {\"Al\": 1}, \"2\": {\"N\": 1}, \"3\": {\"N\": 1}}" energy=-29.520856857299805 free_energy=-29.520856857299805 stress="-0.01404735166579485 0.011821051128208637 -0.014255579560995102 0.011821051128208637 -0.005614731926470995 0.009361447766423225 -0.014255579560995102 0.009361447766423225 -0.019570983946323395" pbc="T T T"
Al       1.52999428       0.91403916       2.46474567        0       0.09545114      -0.23101244      -1.18071409       1.21875572      -0.63577121       0.99290252
Al      -0.00890654       1.82180733       5.05208967        1       0.31216876      -0.10747535       0.45537827       0.39472625      -0.38378531      -1.12710333
N        1.59437712       0.88605556       4.45928986        2      -0.04798953      -0.53350257      -0.20523289      -0.40810418       0.35578990      -0.79021573
N        0.05384446       1.77207216       1.87145001        3      -0.35963037       0.87199043       0.93056880      -1.20537794       0.66376686       0.92441654
4
Lattice="3.128588 0.0 0.0 -1.5642939988088433 2.709436998432005 0.0 0.0 0.0 5.016955" Properties=species:S:1:pos:R:3:spacegroup_kinds:I:1:momenta:R:3:forces:R:3 spacegroup="P 1" unit_cell=conventional occupancy="_JSON {\"0\": {\"Al\": 1}, \"1\": {\"Al\": 1}, \"2\": {\"N\": 1}, \"3\": {\"N\": 1}}" energy=-29.61878776550293 free_energy=-29.61878776550293 stress="0.010117593221366405 -0.0018219663761556149 -0.0018730557058006525 -0.0018219663761556149 -0.024783091619610786 0.004591114819049835 -0.0018730557058006525 0.004591114819049835 2.6422258088132367e-05" pbc="T T T"
Al       1.53818032       0.90928017       2.47247628        0       0.23228484      -0.27447294       1.41733359       0.21200916       0.18702134       0.85530740
Al       0.01802691       1.81430743       5.03506519        1       0.60360848      -0.42930250      -1.11140817       0.03760327      -0.69444126      -0.55142426
N        1.59518018       0.85128051       4.42414646        2       0.09084607       0.02420668      -0.77345486      -0.19470435       0.84070563       0.01228009
N       -0.01452987       1.83034435       1.92467355        3      -0.92673938       0.67956881       0.46752951      -0.05490824      -0.33328563      -0.31616315
4
Lattice="3.128588 0.0 0.0 -1.5642939988088433 2.709436998432005 0.0 0.0 0.0 5.016955" Properties=species:S:1:pos:R:3:spacegroup_kinds:I:1:momenta:R:3:forces:R:3 spacegroup="P 1" unit_cell=conventional occupancy="_JSON {\"0\": {\"Al\": 1}, \"1\": {\"Al\": 1}, \"2\": {\"N\": 1}, \"3\": {\"N\": 1}}" energy=-29.623743057250977 free_energy=-29.623743057250977 stress="0.004300331696867943 -0.008672819472849369 0.0028819008730351925 -0.008672819472849369 -0.006943767424672842 -0.004434459842741489 0.0028819008730351925 -0.004434459842741489 -0.014839187264442444" pbc="T T T"
Al       1.54321201       0.89379622       2.53645983        0      -0.00705459      -0.41529119       0.79445028      -0.25250313       0.39302984      -0.87834424
Al       0.03580901       1.79893953       4.98957805        1       0.09338009      -0.29525091      -0.61192045      -0.16600834       0.14057806       0.62745172
N        1.59619758       0.90645094       4.40111849        2      -0.02189884       1.09350623       0.27120840      -0.08900145      -0.09593505       0.34911299
N       -0.05911262       1.83464209       1.91219260        3      -0.06442665      -0.38296412      -0.45373822       0.50751275      -0.43767288      -0.09822054
