4
Lattice="3.128588 0.0 0.0 -1.5642939988088433 2.709436998432005 0.0 0.0 0.0 5.016955" Properties=species:S:1:pos:R:3:spacegroup_kinds:I:1:forces:R:3 spacegroup="P 1" unit_cell=conventional occupancy="_JSON {\"0\": {\"Al\": 1}, \"1\": {\"Al\": 1}, \"2\": {\"N\": 1}, \"3\": {\"N\": 1}}" energy=-29.673715591430664 free_energy=-29.673715591430664 stress="-0.0022254541981965303 -1.3770912801192026e-06 -1.5342864756462404e-08 -1.3770912801192026e-06 -0.002227388322353363 -5.065290409334011e-08 -1.5342864756462404e-08 -5.065290409334011e-08 -0.005453676450997591" pbc="T T T"
Al       1.56429556       0.90314476       2.50490041        0      -0.00003494       0.00002032       0.00553223
Al      -0.00000156       1.80629224       5.01337791        1       0.00003395      -0.00001953       0.00552443
N        1.56429556       0.90314476       4.41849749        2      -0.00003551       0.00002010      -0.00553034
N       -0.00000156       1.80629224       1.91001999        3       0.00003647      -0.00002096      -0.00552607
