32
Lattice="6.17176593 0.0 0.0 0.0 8.01859859 0.0 0.0 0.0 13.03281824" Properties=species:S:1:pos:R:3:spacegroup_kinds:I:1:momenta:R:3:forces:R:3 spacegroup="P 1" unit_cell=conventional occupancy="_JSON {\"0\": {\"Li\": 1}, \"1\": {\"Li\": 1}, \"2\": {\"Li\": 1}, \"3\": {\"Li\": 1}, \"4\": {\"Li\": 1}, \"5\": {\"Li\": 1}, \"6\": {\"Li\": 1}, \"7\": {\"Li\": 1}, \"8\": {\"Li\": 1}, \"9\": {\"Li\": 1}, \"10\": {\"Li\": 1}, \"11\": {\"Li\": 1}, \"12\": {\"P\": 1}, \"13\": {\"P\": 1}, \"14\": {\"P\": 1}, \"15\": {\"P\": 1}, \"16\": {\"S\": 1}, \"17\": {\"S\": 1}, \"18\": {\"S\": 1}, \"19\": {\"S\": 1}, \"20\": {\"S\": 1}, \"21\": {\"S\": 1}, \"22\": {\"S\": 1}, \"23\": {\"S\": 1}, \"24\": {\"S\": 1}, \"25\": {\"S\": 1}, \"26\": {\"S\": 1}, \"27\": {\"S\": 1}, \"28\": {\"S\": 1}, \"29\": {\"S\": 1}, \"30\": {\"S\": 1}, \"31\": {\"S\": 1}}" energy=-139.3604278564453 free_energy=-139.3604278564453 stress="-0.0030957437120378017 -0.0012608891120180488 0.0022183211985975504 -0.0012608891120180488 -0.005580026190727949 0.0012610559351742268 0.0022183211985975504 0.0012610559351742268 -0.0020059009548276663" pbc="T T T"
Li       2.42084475       0.40833660       4.34607865        0       0.31008486       0.04462193       0.22496042       0.26669228      -0.01086545      -0.20781621
Li       4.09952645       7.98390385       8.79362653        1      -0.19067869      -0.37001777       0.42731375      -0.05811927      -0.24145231      -0.27019036
Li       5.53084990       7.78444626       1.80650800        2      -0.22970830       0.48445266      -0.04871879       0.09884596      -0.18668017       0.30623233
Li       0.72479904       0.30408886      10.96130251        3      -0.08295207       0.01308237      -0.21436816      -0.15301681      -0.40719175      -0.21139258
Li       3.29856796       4.64496599       8.72106478        4      -0.36464565       0.50747983      -1.01237640       0.20783807       0.01164788      -0.15844661
Li       2.40570253       3.87419041       4.65884689        5      -0.01913905      -0.39682936       0.21206389       0.15074630       0.21959820      -0.20653234
Li       0.45145684       3.52869724      10.98375368        6       0.44102750      -0.13450297      -0.35061893      -0.06852533      -0.04020498       0.05627997
Li       5.42890550       4.07877666       2.09355016        7      -0.20022652       0.11542261       0.22128632       0.01355098       0.12658828       0.13693607
Li       3.02226270      -0.01562950      -0.06083270        8      -0.43848122       0.03647058       0.10747430       0.05613334      -0.15750505       0.19173083
Li       0.47007615      -0.22280773       6.16777331        9      -0.10721389       0.23385246       0.42487158      -0.30184394       0.06294890       0.27146876
Li       2.76242708       4.29641340       0.08336569       10      -0.01885836      -0.36791463       0.35381895      -0.15436900      -0.09200875      -0.37023893
Li      -0.44523719       3.52902556       6.80803811       11       0.09583964       0.22604825      -0.45275811       0.01472054       0.28986961      -0.30430260
P        1.03521565       2.02846397       1.09457695       12      -0.11473060      -0.65587491      -0.27717369       0.20796095      -0.09689616       0.93987632
P        5.03365421       5.97291757      11.86693452       13      -0.28619713      -1.15383666      -0.80265863       0.69217253      -1.01091743      -0.59256697
P        4.15951869       6.13426625       5.41136414       14       0.16820551      -0.18536004      -0.58786958       1.00800920       0.14088210      -0.43209341
P        2.06182256       1.97488962       7.75079840       15       1.02708381      -1.74720994      -1.54171977      -0.11322197      -0.07347552      -0.01016277
S        5.18835902       1.95609430       0.89769887       16      -0.52278639      -1.70481559      -0.56506124      -0.13700144       0.32209179       0.40599728
S        0.90063243       5.74697165      11.70675205       17      -0.46826545      -0.79782994       1.75822208       0.29926327       0.62227577       0.18115562
S        2.12914906       6.22793726       5.44469092       18       1.90395710       0.55095103       0.72103115       0.05651326      -0.51150805      -0.10995001
S        4.11052888       2.12906470       7.83700019       19      -0.46635629       1.68636103       1.03354393      -0.50366580      -0.08806647       0.30652457
S        1.80079877       1.88938358      12.25437551       20       0.15178793       0.50093692       1.23691123       0.50693923       0.78308117      -0.70007133
S        4.34805616       5.89997594       0.76342487       21       1.01054065       1.19553812       0.04927656       0.01124783       0.35301217       0.42029405
S        5.10356735       6.08411379       7.30430525       22       1.27701087      -0.96057692       0.50091132      -0.72768831       0.03134896      -0.38369733
S        1.40947876       2.10162585       5.73464962       23      -1.03903811       1.11608884       0.28154653      -0.15832984      -0.32843763       0.59688914
S        1.81748169       0.35381879       1.97842096       24       0.14377013       0.09707911      -2.18628172      -0.29427212      -0.37052011       0.21582940
S        4.48616739       7.75919515      11.10193140       25      -0.19676628      -0.60738066      -1.08140208      -0.09888884       0.45276710      -0.09779480
S        4.84503529       7.77754182       4.31310763       26      -0.02671132       0.47685096      -0.12841964      -0.05854624      -0.27778783       0.51477420
S        1.34608018       0.21440398       8.56477094       27      -0.17297104      -0.71797705      -0.79597034       0.53001410       0.27520943      -0.28551131
S        4.30534731       4.33184494      10.86692886       28      -0.23797192       1.91217303       0.92418567      -0.30833003       0.10510830       0.36739683
S        1.77367624       3.67259995       2.16914689       29       0.42484158      -0.27208961       1.59222772      -0.65623868      -0.27490464      -0.57535481
S        1.15218362       3.54712845       8.70544905       30      -1.50337700       0.88194757      -0.56811324       0.13727814       0.10850798      -0.32503363
S        4.85611300       4.36287368       4.52240031       31      -0.26707423      -0.00714128       0.54386499      -0.46586838       0.26348454       0.32977074
