32
Lattice="6.17176593 0.0 0.0 0.0 8.01859859 0.0 0.0 0.0 13.03281824" Properties=species:S:1:pos:R:3:spacegroup_kinds:I:1:momenta:R:3:forces:R:3 spacegroup="P 1" unit_cell=conventional occupancy="_JSON {\"0\": {\"Li\": 1}, \"1\": {\"Li\": 1}, \"2\": {\"Li\": 1}, \"3\": {\"Li\": 1}, \"4\": {\"Li\": 1}, \"5\": {\"Li\": 1}, \"6\": {\"Li\": 1}, \"7\": {\"Li\": 1}, \"8\": {\"Li\": 1}, \"9\": {\"Li\": 1}, \"10\": {\"Li\": 1}, \"11\": {\"Li\": 1}, \"12\": {\"P\": 1}, \"13\": {\"P\": 1}, \"14\": {\"P\": 1}, \"15\": {\"P\": 1}, \"16\": {\"S\": 1}, \"17\": {\"S\": 1}, \"18\": {\"S\": 1}, \"19\": {\"S\": 1}, \"20\": {\"S\": 1}, \"21\": {\"S\": 1}, \"22\": {\"S\": 1}, \"23\": {\"S\": 1}, \"24\": {\"S\": 1}, \"25\": {\"S\": 1}, \"26\": {\"S\": 1}, \"27\": {\"S\": 1}, \"28\": {\"S\": 1}, \"29\": {\"S\": 1}, \"30\": {\"S\": 1}, \"31\": {\"S\": 1}}" energy=-140.31869506835938 free_energy=-140.31869506835938 stress="-0.007170624099671841 -4.116828655753579e-09 3.052522457025475e-09 -4.116828655753579e-09 -0.008259397931396961 -1.676073857481697e-08 3.052522457025475e-09 -1.676073857481697e-08 -0.005266319960355759" pbc="T T T"
Li       2.40329652       0.26860172       4.33400832        0       0.68603051       0.16946497       0.45505590      -0.02603535       0.00549133      -0.00432165
Li       3.76846941       7.74999687       8.69880992        1       1.05330044       0.74853790      -0.34399483       0.02603682      -0.00549221       0.00432351
Li       5.48917948       7.74999687       2.18240080        2       0.52456762      -0.13258394       0.04531988      -0.02603597      -0.00549081       0.00432316
Li       0.68258645       0.26860172      10.85041744        3       0.06353884       0.06011300       0.65331090       0.02603559       0.00549192      -0.00432001
Li       3.76846941       4.27790102       8.69880992        4       0.32458389      -0.01156296       0.25357451       0.02603641       0.00549212       0.00432256
Li       2.40329652       3.74069757       4.33400832        5       0.14772573       0.64572309      -0.03922472      -0.02603623      -0.00549130      -0.00432152
Li       0.68258645       3.74069757      10.85041744        6       0.10551254      -0.37444450      -1.07017222       0.02603565      -0.00549202      -0.00431960
Li       5.48917948       4.27790102       2.18240080        7       0.31105882       0.30965958      -0.25400600      -0.02603607       0.00549082       0.00432301
Li       3.08588297       0.00000000       0.00000000        8       0.92177375      -0.62813396       0.05071279      -0.00000054      -0.00000181       0.00000063
Li       0.00000000       0.00000000       6.51640912        9      -0.18113935       0.70772238       0.65476038       0.00000039      -0.00000045      -0.00000033
Li       3.08588297       4.00929929       0.00000000       10       0.09855456       0.16968942      -0.33130044      -0.00000054       0.00000134      -0.00000085
Li       0.00000000       4.00929929       6.51640912       11      -0.86452083      -0.11106968       0.10754015       0.00000052       0.00000142       0.00000040
P        0.94051010       2.00464965       1.16601784       12       1.02623011       1.32958291      -0.21317026      -0.02067202      -0.00000014       0.02376040
P        5.23125583       6.01394894      11.86680040       13      -0.19186410      -1.49733199      -0.95631150       0.02066687       0.00000003      -0.02375894
P        4.02639307       6.01394894       5.35039128       14      -1.33481321       1.56924537      -0.14642714      -0.02066725       0.00000007      -0.02375583
P        2.14537286       2.00464965       7.68242696       15      -0.65662154      -1.23650552       0.88561043       0.02066781       0.00000015       0.02375808
S        5.08970823       2.00464965       1.30575389       16      -1.62252505      -0.43759723      -0.59205685      -0.25450557       0.00000121       0.01679136
S        1.08205770       6.01394894      11.72706435       17       0.45453900      -0.55953489      -0.84052413       0.25450745       0.00000015      -0.01679247
S        2.00382526       6.01394894       5.21065523       18       0.21968842       0.39907330       0.34821336      -0.25450599      -0.00000133      -0.01679268
S        4.16794067       2.00464965       7.82216301       19       0.01714742      -0.91190506      -0.11528309       0.25450090       0.00000082       0.01678999
S        1.68132889       2.00464965      12.25955363       20      -0.99971190      -0.50030776      -0.59534663       0.10912263      -0.00000010      -0.16719644
S        4.49043704       6.01394894       0.77326461       21      -1.26473272       0.00980590      -0.03139629      -0.10912065       0.00000037       0.16718090
S        4.76721186       6.01394894       7.28967373       22      -1.32838564       0.06236751      -0.49790997       0.10912086       0.00000038       0.16717935
S        1.40455407       2.00464965       5.74314451       23      -0.16828840       0.73284588       0.27972489      -0.10911980       0.00000055      -0.16718096
S        1.67233151       0.29287049       2.00524453       24       0.74507742      -1.02978256       0.49366165       0.13957790      -0.21272625       0.08709818
S        4.49943442       7.72572810      11.02757371       25      -0.33952565      -1.26062350      -0.14870765      -0.13957532       0.21272449      -0.08709188
S        4.75821447       7.72572810       4.51116459       26       0.16331213      -0.23892709      -0.69123755       0.13957500       0.21272403      -0.08709302
S        1.41355146       0.29287049       8.52165365       27       0.36826909       0.40714833      -1.32646071      -0.13957557      -0.21272145       0.08709080
S        4.49943442       4.30216979      11.02757371       28       1.30930438       1.32829297       1.39965136      -0.13957757      -0.21272607      -0.08709334
S        1.67233151       3.71642880       2.00524453       29      -0.10487160      -0.87625167       1.20020727       0.13957863       0.21272689       0.08709785
S        1.41355146       3.71642880       8.52165365       30      -0.46734235       1.11530487       0.40230220      -0.13957588       0.21272090       0.08709214
S        4.75821447       4.30216979       4.51116459       31       0.98412767       0.04198493       0.96388429       0.13957670      -0.21272513      -0.08709269
32
Lattice="6.17176593 0.0 0.0 0.0 8.01859859 0.0 0.0 0.0 13.03281824" Properties=species:S:1:pos:R:3:spacegroup_kinds:I:1:momenta:R:3:forces:R:3 spacegroup="P 1" unit_cell=conventional occupancy="_JSON {\"0\": {\"Li\": 1}, \"1\": {\"Li\": 1}, \"2\": {\"Li\": 1}, \"3\": {\"Li\": 1}, \"4\": {\"Li\": 1}, \"5\": {\"Li\": 1}, \"6\": {\"Li\": 1}, \"7\": {\"Li\": 1}, \"8\": {\"Li\": 1}, \"9\": {\"Li\": 1}, \"10\": {\"Li\": 1}, \"11\": {\"Li\": 1}, \"12\": {\"P\": 1}, \"13\": {\"P\": 1}, \"14\": {\"P\": 1}, \"15\": {\"P\": 1}, \"16\": {\"S\": 1}, \"17\": {\"S\": 1}, \"18\": {\"S\": 1}, \"19\": {\"S\": 1}, \"20\": {\"S\": 1}, \"21\": {\"S\": 1}, \"22\": {\"S\": 1}, \"23\": {\"S\": 1}, \"24\": {\"S\": 1}, \"25\": {\"S\": 1}, \"26\": {\"S\": 1}, \"27\": {\"S\": 1}, \"28\": {\"S\": 1}, \"29\": {\"S\": 1}, \"30\": {\"S\": 1}, \"31\": {\"S\": 1}}" energy=-139.85145568847656 free_energy=-139.85145568847656 stress="-0.004872219171375036 -0.004560510162264109 -0.0014461110113188624 -0.004560510162264109 -0.011575762182474136 -0.00010375578131061047 -0.0014461110113188624 -0.00010375578131061047 -0.007676261011511087" pbc="T T T"
Li       2.48289776       0.34401443       4.37236655        0       0.28899101       0.68957715      -0.00169336      -0.19003968      -0.04943641      -0.12983570
Li       3.95700485       7.91212516       8.66410358        1       1.05789801       0.94063058      -0.15219633      -0.16869131      -0.55906445       0.20888056
Li       5.52794159       7.73539939       2.16950892        2       0.07521840       0.09733841       0.17289947      -0.01106634       0.03175651      -0.00903920
Li       0.72738397       0.28274569      10.93116157        3       0.21507842       0.21386432       0.50759226      -0.11938590      -0.17338756      -0.13006037
Li       3.82463877       4.26580194       8.76238935        4       0.15403433      -0.29279852       0.37248709      -0.09703495       0.04172105      -0.12144384
Li       2.41057189       3.83173991       4.34719186        5       0.04595146       0.41823972       0.01393016       0.00225572      -0.12729648       0.08865031
Li       0.68663846       3.71369328      10.66337363        6      -0.00333078      -0.00765459      -0.68015729      -0.01879900      -0.02393826       0.54257822
Li       5.56431239       4.32822814       2.14259756        7       0.56537931       0.34987752      -0.26732436      -0.32256651      -0.03703634       0.10969979
Li       3.23127605      -0.08778586       0.02191349        8       0.67742442      -0.06270848       0.28848559      -0.27210009       0.28407544       0.12037352
Li      -0.00097262       0.09404302       6.59035480        9      -0.14037103       0.70858492      -0.02184098      -0.14695396      -0.11771461      -0.32876760
Li       3.04321334       4.05475268      -0.05865586       10      -0.41823544       0.03262272      -0.27409875      -0.12202035      -0.02710669       0.15079659
Li      -0.08920109       3.98560855       6.52633755       11      -0.27270958      -0.00599746       0.02762007       0.09120983      -0.03416980       0.02722470
P        0.93886069       2.03968603       1.17008468       12      -0.69927691       0.44342473       0.25830629      -0.34173933      -1.38760769       0.02974684
P        5.25310086       5.96056606      11.84589151       13       1.08650008      -1.14324872       0.24910226       0.55797261       1.43472898       1.00023282
P        4.01021353       6.06167825       5.34916047       14       0.34558592       1.01622973      -0.23513666       0.04386638      -0.80676198      -0.47450548
P        2.12266940       1.98144094       7.70847127       15      -0.67645022       0.17210947       0.70620261       0.05696383       1.10707867      -0.47991252
S        5.04377263       1.99234009       1.27345681       16      -0.71500410      -0.25227939      -0.79921636       0.46785152       0.10527116       0.09393083
S        1.11991506       5.99235982      11.68994273       17       1.16449214      -0.75508022      -0.87567327      -0.08293271      -0.08237641       0.04948808
S        1.99568568       6.04006599       5.22318992       18      -0.41291916       0.77724080       0.36479496      -0.34480959       0.12721531      -0.07461251
S        4.15380733       1.98703451       7.82697725       19      -0.00818272      -0.07255707       0.36299121       0.39338216       0.51654994      -0.09031454
S        1.65689512       1.98376901      12.24612314       20      -0.09281420      -0.84930989      -0.77977233       0.20374721       0.33653510       0.09697565
S        4.44564071       6.01555731       0.79035448       21      -1.55557233      -0.43829778       0.51452668       0.35518339      -0.19717740      -0.25968769
S        4.72880831       6.01343050       7.25226826       22      -0.80884016      -0.08664362      -1.39301333       0.32852900       0.17249319       0.86849082
S        1.40139023       2.01812557       5.75472999       23      -0.14694637       0.09661793       0.73043851      -0.07120880       0.11727548      -0.07152234
S        1.70761114       0.24497905       2.01362023       24       1.54115975      -0.96828004      -0.60418184      -0.21314994       0.71859366      -0.24649742
S        4.48635140       7.67501107      11.02793678       25      -0.38484969      -1.21565715       0.24611172       0.07396113       0.27234435      -0.19900903
S        4.76106124       7.71926691       4.48626942       26      -0.42491547      -0.17424235      -0.58558349       0.36821237       0.53708881      -0.10369710
S        1.41833397       0.30476229       8.48566138       27      -0.22709690      -0.07255494      -0.10344330      -0.28511375      -0.93689907       0.80666006
S        4.53061527       4.32281484      11.07546081       28       0.13574226      -0.02798808       0.59505993      -0.65197730      -1.65613699      -0.82189989
S        1.65346775       3.69975136       2.05544045       29      -0.56918589      -0.24680270       1.56641553       0.37587696       0.42091516      -0.03704904
S        1.40231191       3.75513545       8.52864086       30       0.05424653       0.60102347      -0.07895870       0.25103882      -0.18760712      -0.44867432
S        4.77674006       4.29937460       4.53213756       31       0.14899888       0.11471954      -0.12467399      -0.11046147       0.18007433      -0.16720004
32
Lattice="6.17176593 0.0 0.0 0.0 8.01859859 0.0 0.0 0.0 13.03281824" Properties=species:S:1:pos:R:3:spacegroup_kinds:I:1:momenta:R:3:forces:R:3 spacegroup="P 1" unit_cell=conventional occupancy="_JSON {\"0\": {\"Li\": 1}, \"1\": {\"Li\": 1}, \"2\": {\"Li\": 1}, \"3\": {\"Li\": 1}, \"4\": {\"Li\": 1}, \"5\": {\"Li\": 1}, \"6\": {\"Li\": 1}, \"7\": {\"Li\": 1}, \"8\": {\"Li\": 1}, \"9\": {\"Li\": 1}, \"10\": {\"Li\": 1}, \"11\": {\"Li\": 1}, \"12\": {\"P\": 1}, \"13\": {\"P\": 1}, \"14\": {\"P\": 1}, \"15\": {\"P\": 1}, \"16\": {\"S\": 1}, \"17\": {\"S\": 1}, \"18\": {\"S\": 1}, \"19\": {\"S\": 1}, \"20\": {\"S\": 1}, \"21\": {\"S\": 1}, \"22\": {\"S\": 1}, \"23\": {\"S\": 1}, \"24\": {\"S\": 1}, \"25\": {\"S\": 1}, \"26\": {\"S\": 1}, \"27\": {\"S\": 1}, \"28\": {\"S\": 1}, \"29\": {\"S\": 1}, \"30\": {\"S\": 1}, \"31\": {\"S\": 1}}" energy=-139.6019744873047 free_energy=-139.6019744873047 stress="0.000759959511924535 -0.003114446997642517 -0.0013211845653131604 -0.003114446997642517 -0.007642639335244894 0.0006583547801710665 -0.0013211845653131604 0.0006583547801710665 -0.006442193873226643" pbc="T T T"
Li       2.48031566       0.47328568       4.30252585        0      -0.47380245       0.81796593      -0.56434297      -0.07824902      -0.22774541      -0.04280848
Li       4.11254652       7.97846321       8.64666836        1       0.80481478      -0.48847369       0.37201754      -0.24479342      -0.97883058       0.39508662
Li       5.58318917       7.77928810       2.16546245        2       0.01428331       0.02190647       0.00927646      -0.08035810      -0.10108846      -0.02334587
Li       0.72166482       0.29259821      11.02730159        3      -0.21735573      -0.11377809       0.41699600      -0.28078449      -0.41362098      -0.39118120
Li       3.84636646       4.24531490       8.76533362        4      -0.02314259       0.16445478      -0.15839182      -0.10947831       0.12721406      -0.12069262
Li       2.41863366       3.90071268       4.34589388        5      -0.00699301       0.33205581      -0.00025774      -0.05480057      -0.17424789       0.17638628
Li       0.70103658       3.73218811      10.58693354        6       0.14068212       0.22461402       0.12642944      -0.17177555      -0.09709367       0.89665306
Li       5.58528352       4.39617025       2.11909594        7      -0.44721228       0.41905258      -0.09682519      -0.35916659      -0.09321997       0.16045558
Li       3.31209570      -0.05332442       0.04786686        8       0.34755162       0.57551939       0.02168187      -0.32166922       0.40156555       0.05922097
Li      -0.03035531       0.18377061       6.56623512        9      -0.44333913       0.25627627      -0.39630283      -0.09510061      -0.17167084      -0.29053044
Li       2.94473699       4.04688120      -0.11854376       10      -0.72890605      -0.22603322      -0.24309670      -0.07929456       0.04146988       0.11881569
Li      -0.16348000       3.98259954       6.55805090       11      -0.37048463       0.10072541       0.13075028       0.17226027      -0.05933541       0.03721718
P        0.91263445       2.03085904       1.18543764       12      -0.39162080      -0.84292155      -0.14341087       0.15100835      -1.23308408      -0.36621851
P        5.28221786       5.95366577      11.87790466       13       0.92285385       0.65827681       1.12842588      -0.14855894       0.58444273       0.32492959
P        4.02088617       6.06925315       5.32288183       14       0.31579734      -0.18791237      -0.92549504      -0.48548222      -0.62856859      -0.07539204
P        2.12159123       1.99790068       7.71941214       15      -0.15690338      -0.01608061       0.74291366      -0.10433550       0.40638912      -0.30106205
S        5.02344645       1.98603841       1.26735385       16      -0.39395296       0.30438025      -0.25704106       0.59086263       0.13501608       0.15870139
S        1.14882845       5.96912612      11.68403235       17       0.29665228      -0.84153802       0.51460661      -0.26944390      -0.03594439       0.13699810
S        1.97171223       6.05732589       5.26733631       18      -0.18154730       0.42246923       0.92773841       0.23734373       0.23369068      -0.21314804
S        4.17314158       1.97453270       7.83513252       19       0.76073790      -0.46123087       0.34286969       0.15402156       0.93806529      -0.29736933
S        1.66276574       1.93723444      12.21934323       20       0.22155796      -1.56512835      -0.62829407       0.09927115       0.75358021       0.78203475
S        4.41180907       6.02875099       0.80175422       21      -0.42941817       0.56479041       0.19475822       0.58502787      -0.28689554      -0.27981108
S        4.72485045       6.01335913       7.24533520       22       0.34097651       0.00810036       0.51423843       0.31326175       0.24256620       0.66852772
S        1.39295258       2.05379062       5.76512706       23      -0.11201948       1.52346823       0.71857487      -0.00231405       0.17714129      -0.06840631
S        1.75030236       0.22778448       1.98075027       24       0.73145957       0.22426727      -1.43506160      -0.39994287       0.87292755      -0.16918853
S        4.44739875       7.63781563      11.02639700       25      -1.02330370      -0.70052357      -0.16452808       0.37881947       0.12590942      -0.08100832
S        4.77892814       7.71884462       4.44410096       26       1.02051497       0.70329711      -1.30330683       0.19542131       0.51554888      -0.03292686
S        1.39802802       0.28952850       8.49012149       27      -0.56933886      -0.65647559       0.04902648       0.00324714      -0.29337078       0.56053102
S        4.52461535       4.27746386      11.06602803       28       0.27116650      -1.82689203      -0.61093249      -0.12915438      -0.69028652      -0.24384679
S        1.64472014       3.69639211       2.10219364       29      -0.20110173      -0.08875040       0.64929069       0.18966997       0.03198534      -0.39975381
S        1.41075547       3.77319819       8.52525501       30       0.01993660       0.38916594       0.17890700       0.39979964      -0.16565593      -0.71649408
S        4.77484932       4.30608652       4.53646116       31      -0.03854305       0.30495209      -0.11121422      -0.05531246       0.06314721      -0.36237350
32
Lattice="6.17176593 0.0 0.0 0.0 8.01859859 0.0 0.0 0.0 13.03281824" Properties=species:S:1:pos:R:3:spacegroup_kinds:I:1:momenta:R:3:forces:R:3 spacegroup="P 1" unit_cell=conventional occupancy="_JSON {\"0\": {\"Li\": 1}, \"1\": {\"Li\": 1}, \"2\": {\"Li\": 1}, \"3\": {\"Li\": 1}, \"4\": {\"Li\": 1}, \"5\": {\"Li\": 1}, \"6\": {\"Li\": 1}, \"7\": {\"Li\": 1}, \"8\": {\"Li\": 1}, \"9\": {\"Li\": 1}, \"10\": {\"Li\": 1}, \"11\": {\"Li\": 1}, \"12\": {\"P\": 1}, \"13\": {\"P\": 1}, \"14\": {\"P\": 1}, \"15\": {\"P\": 1}, \"16\": {\"S\": 1}, \"17\": {\"S\": 1}, \"18\": {\"S\": 1}, \"19\": {\"S\": 1}, \"20\": {\"S\": 1}, \"21\": {\"S\": 1}, \"22\": {\"S\": 1}, \"23\": {\"S\": 1}, \"24\": {\"S\": 1}, \"25\": {\"S\": 1}, \"26\": {\"S\": 1}, \"27\": {\"S\": 1}, \"28\": {\"S\": 1}, \"29\": {\"S\": 1}, \"30\": {\"S\": 1}, \"31\": {\"S\": 1}}" energy=-139.67422485351562 free_energy=-139.67422485351562 stress="0.0023044198751449585 0.00014861035742796957 -0.0010892637073993683 0.00014861035742796957 -0.00192090158816427 0.0017286652000620961 -0.0010892637073993683 0.0017286652000620961 -0.005061776377260685" pbc="T T T"
Li       2.41716734       0.56717762       4.23511379        0      -0.24316689       0.38326648      -0.11969761       0.10543285      -0.31220874       0.03997288
Li       4.21536194       7.81194702       8.77220327        1       0.24990962      -1.07695754       0.65813629      -0.31072438      -0.02633093      -0.27714020
Li       5.58513093       7.78163576       2.18113294        2      -0.24789352      -0.10856218       0.30404363      -0.04384339      -0.08904219      -0.17777498
Li       0.68127679       0.20433852      11.02590972        3      -0.10718560      -0.67397205      -0.50429865      -0.11244628      -0.08726483      -0.36591989
Li       3.81614241       4.25059730       8.75399619        4      -0.39647831      -0.11634562      -0.15569995      -0.02037363       0.10433686      -0.07483122
Li       2.41436842       3.94522880       4.36897788        5      -0.10484708       0.17900253       0.35438425      -0.14100681      -0.25083283       0.09354231
Li       0.70112138       3.75225766      10.69684609        6       0.18377406       0.06491628       0.94069554      -0.10901911      -0.21238104       0.29775399
Li       5.54971425       4.46008405       2.11242251        7      -0.16375656       0.27429650      -0.06063447      -0.09917319      -0.26759744       0.18544561
Li       3.28559789       0.09395081       0.04294361        8      -0.47052392       0.77509411      -0.33848581      -0.02384548       0.17906563       0.00389007
Li      -0.11640972       0.19432124       6.50458584        9      -0.49862286       0.11702075      -0.24996417       0.01344451      -0.08454016      -0.06163868
Li       2.82128136       4.04443826      -0.16803837       10      -0.41919180       0.10921050      -0.09182591       0.07627863       0.12336285       0.13109799
Li      -0.22292868       3.95283674       6.60014958       11      -0.03189746      -0.31461969       0.03623029       0.18002494      -0.06705867       0.09881316
P        0.89908642       1.96492081       1.15658684       12      -0.21149135      -1.75087252      -0.85157286       0.68522829       0.43233699      -0.04432798
P        5.30410952       5.99199249      11.92618640       13      -0.32196960       0.93073088       1.43612420      -1.08942938      -1.01297045      -0.28361940
P        4.02148637       6.05314394       5.29181770       14      -0.02235428      -0.24922342      -0.44492131      -0.37181774       0.32909399       0.48314068
P        2.10729988       1.99903545       7.72271864       15       0.17223695       0.60965469      -0.41098881       0.30393934       0.17326021       0.07507398
S        5.05645934       2.01592259       1.26613644       16       1.40230411       0.75711369      -0.31037841      -0.02694687      -0.09521143       0.11979538
S        1.15077109       5.93481025      11.72052237       17      -0.02336948      -0.89135318       1.05525887      -0.01057065       0.18911736       0.14518061
S        1.96431737       6.07402863       5.32173304       18       0.04617235       0.64332073       1.42706488       0.54631788       0.27184877      -0.38477707
S        4.18887457       1.96664195       7.83014973       19       0.37369531       0.09392721      -0.16948308      -0.26042432       0.26153523      -0.05432901
S        1.67429204       1.89853360      12.21085974       20       0.19552158      -1.04262079       0.42830196      -0.05563625       0.59883791       0.41139346
S        4.40633204       6.05673877       0.80530742       21      -0.01343230       0.29850923       0.07385143       0.45879894      -0.04874386      -0.25686151
S        4.73136789       6.02925928       7.26188722       22       0.25117921       0.82306345       0.22220763       0.22325280       0.07717515      -0.04867542
S        1.37665526       2.07867843       5.78574217       23      -0.56332350       0.32992091       0.56782609      -0.07685576       0.15704772      -0.27653337
S        1.76573147       0.25443654       1.91089424       24      -0.19798942       0.73509234      -1.95253706      -0.27242473       0.04850264       0.31851071
S        4.41323497       7.60926392      11.03105313       25      -1.12581880      -0.69278101       0.47241317       0.47533944       0.27040616       0.21328637
S        4.82871194       7.73217790       4.38025662       26       0.91413591       0.72750151      -1.47079053      -0.41146153      -0.05840025       0.44026393
S        1.37662192       0.27293078       8.49053369       27      -0.44103402      -0.50880499       0.33150155       0.05645378      -0.02386364       0.35862860
S        4.52366131       4.22742237      11.04093051       28       0.19297578      -1.34212596      -0.62731651       0.28247619       0.50409132       0.46702197
S        1.64359864       3.70028000       2.11540265       29       0.07466085      -0.02899236      -0.25044660      -0.11074442      -0.55871832      -0.77870250
S        1.44109293       3.79204432       8.53237318       30       1.48047173       0.73107409      -0.06667891       0.12341908      -0.30599982      -0.30983180
S        4.78117054       4.32263092       4.53620814       31       0.06730931       0.21451547      -0.23231913       0.01633720      -0.21885398      -0.48784876
32
Lattice="6.17176593 0.0 0.0 0.0 8.01859859 0.0 0.0 0.0 13.03281824" Properties=species:S:1:pos:R:3:spacegroup_kinds:I:1:momenta:R:3:forces:R:3 spacegroup="P 1" unit_cell=conventional occupancy="_JSON {\"0\": {\"Li\": 1}, \"1\": {\"Li\": 1}, \"2\": {\"Li\": 1}, \"3\": {\"Li\": 1}, \"4\": {\"Li\": 1}, \"5\": {\"Li\": 1}, \"6\": {\"Li\": 1}, \"7\": {\"Li\": 1}, \"8\": {\"Li\": 1}, \"9\": {\"Li\": 1}, \"10\": {\"Li\": 1}, \"11\": {\"Li\": 1}, \"12\": {\"P\": 1}, \"13\": {\"P\": 1}, \"14\": {\"P\": 1}, \"15\": {\"P\": 1}, \"16\": {\"S\": 1}, \"17\": {\"S\": 1}, \"18\": {\"S\": 1}, \"19\": {\"S\": 1}, \"20\": {\"S\": 1}, \"21\": {\"S\": 1}, \"22\": {\"S\": 1}, \"23\": {\"S\": 1}, \"24\": {\"S\": 1}, \"25\": {\"S\": 1}, \"26\": {\"S\": 1}, \"27\": {\"S\": 1}, \"28\": {\"S\": 1}, \"29\": {\"S\": 1}, \"30\": {\"S\": 1}, \"31\": {\"S\": 1}}" energy=-139.38763427734375 free_energy=-139.38763427734375 stress="-0.0021609703544527292 0.0018687963020056486 -0.0002088388428092003 0.0018687963020056486 -0.0014586115721613169 0.0015353229828178883 -0.0002088388428092003 0.0015353229828178883 -0.007765098474919796" pbc="T T T"
Li       2.36020297       0.62240488       4.22466212        0      -0.36614803       0.21440848      -0.28177102       0.21110836      -0.39356613      -0.02476514
Li       4.21846797       7.62792996       8.82250492        1      -0.14402861      -1.25222948       0.35079049      -0.41194910       0.49736479      -0.28323758
Li       5.54556556       7.75564780       2.20814552        2      -0.05149762      -0.03479090      -0.33043763       0.07393797      -0.00587871      -0.44494319
Li       0.63543724       0.13172535      10.86934779        3      -0.30795515      -0.20214883      -1.19175104       0.07042691       0.11258335      -0.08955387
Li       3.75968253       4.26378456       8.73230030        4      -0.23580588       0.20233835      -0.22445808       0.23691913       0.13523155       0.00275186
Li       2.37531347       3.95493689       4.43612898        5      -0.03232245      -0.49042233       0.56107046      -0.12308750      -0.22695327      -0.08266000
Li       0.72496582       3.72918666      10.88465603        6       0.13184213      -0.02987927       1.25509338      -0.14369845      -0.27790669      -0.21956077
Li       5.52433575       4.45407361       2.11552180        7      -0.18802157      -0.50460886      -0.07384634       0.03851381      -0.31781152       0.16020918
Li       3.19965985       0.20468633       0.00312312        8      -0.33767419       0.30831214      -0.31278309       0.23439187      -0.06409908       0.04823506
Li      -0.19207632       0.24564376       6.46253302        9      -0.36568607       0.75182324       0.04387290       0.04438276      -0.03573815       0.07067044
Li       2.75863240       4.06692014      -0.20194329       10      -0.11259051       0.12651646      -0.24949726       0.15098238       0.11671191       0.17623086
Li      -0.20053583       3.92237939       6.65692241       11       0.43574823      -0.21365902       0.66531299       0.03515412       0.01190778      -0.01117549
P        0.90258399       1.91047882       1.13678774       12      -0.06345018      -0.47305476      -0.57595231       1.24689531       1.40283012      -0.01823185
P        5.27729780       5.99715328      11.98492402       13      -0.98113818      -1.08516851       1.07835876      -0.58292454      -1.55417609      -1.06035209
P        4.01743522       6.05505337       5.29758968       14      -0.24578690       0.55618105       0.39366928       0.03989553       0.59150863       0.25621647
P        2.10957343       2.01898935       7.72688435       15      -0.27974524       0.16094810       0.98615220       0.30885506      -0.21616414       0.21894252
S        5.12182296       2.05080037       1.22840217       16       1.65664490       1.17599574      -0.98137017      -1.24469733      -0.26322770       0.15109077
S        1.15668677       5.88245300      11.76281203       17      -0.12761632      -1.34407479       1.18870422      -0.35441685       0.55387336       0.16129206
S        1.98202667       6.11929938       5.35473185       18       0.66788546       1.36837171       0.46337308       0.36856726       0.15810218      -0.40874454