13
Lattice="7.26870274 0.0 0.0 3.634351370000001 6.294881225397555 0.0 3.634351370000001 2.0982937417991856 5.934870934989993" Properties=species:S:1:pos:R:3:spacegroup_kinds:I:1:momenta:R:3:forces:R:3 spacegroup="P 1" unit_cell=conventional occupancy="_JSON {\"0\": {\"Li\": 1}, \"1\": {\"Li\": 1}, \"2\": {\"Li\": 1}, \"3\": {\"Li\": 1}, \"4\": {\"Li\": 1}, \"5\": {\"Li\": 1}, \"6\": {\"P\": 1}, \"7\": {\"S\": 1}, \"8\": {\"S\": 1}, \"9\": {\"S\": 1}, \"10\": {\"S\": 1}, \"11\": {\"S\": 1}, \"12\": {\"Cl\": 1}}" energy=-53.336936950683594 free_energy=-53.336936950683594 stress="-0.0010122599778696895 0.0011874510673806071 -0.0005668231169693172 0.0011874510673806071 -0.0004266923642717302 -0.0009744810522533953 -0.0005668231169693172 -0.0009744810522533953 -0.002256935928016901" pbc="T T T"
Li       9.27271478       7.24459343       3.16359322        0      -0.02499267       0.03761158       0.40436933      -0.07486641       0.18605663      -0.09272079
Li      12.61749421       5.39818101       5.74740928        1       0.52687977       0.28502369      -0.04603720      -0.00972007       0.06492123       0.19054031
Li       9.21858211       5.31642689       5.75948507        2      -0.11440613       0.00202621      -0.25398393       0.07491317       0.03227217       0.09911321
Li      12.62945502       7.25258589       3.14652111        3      -0.07552751      -0.02029891       0.24544138      -0.13729611       0.02419993       0.13077766
Li      10.91992742       4.39133705       3.13638604        4       0.12358114       0.11136581       0.17548048      -0.13755952      -0.06164473      -0.02275037
Li      10.84686307       8.17391554       5.79851755        5      -0.29430716      -0.34083736      -0.24696212      -0.02894223       0.05820231       0.09295972
P        7.26656620       4.20343372       2.95896196        6       0.18514931       0.11387336      -0.89822234       0.00235651      -0.05183462      -0.17025101
S        7.29769145       6.16217171       2.31178824        7       0.05665248       0.38556311       0.61045520       0.07583948      -0.17193468      -0.11952315
S        8.93699628       3.20418794       2.28509982        8      -0.16362291      -0.71866349       0.09593715      -0.02728911       0.17672977      -0.09047043
S        5.55985843       3.27395418       2.28721829        9       0.23679901       0.77464237      -0.11425613       0.13778998      -0.17073652      -0.14886010
S        7.24437492       4.16779748       5.00366249       10      -0.54594256      -0.03621087       0.46403231       0.09650549      -0.00766698       0.22147627
S       10.91865727       6.28870992       4.45991116       11       0.13595588      -0.27331674      -0.19243170       0.02040594      -0.00054983       0.00030193
Cl       0.00343450      -0.02203285      -0.02568018       12      -0.04621865      -0.32077875      -0.24382243       0.00786284      -0.07801466      -0.09059322
