13
Lattice="7.26870274 0.0 0.0 3.634351370000001 6.294881225397555 0.0 3.634351370000001 2.0982937417991856 5.934870934989993" Properties=species:S:1:pos:R:3:spacegroup_kinds:I:1:momenta:R:3:forces:R:3 spacegroup="P 1" unit_cell=conventional occupancy="_JSON {\"0\": {\"Li\": 1}, \"1\": {\"Li\": 1}, \"2\": {\"Li\": 1}, \"3\": {\"Li\": 1}, \"4\": {\"Li\": 1}, \"5\": {\"Li\": 1}, \"6\": {\"P\": 1}, \"7\": {\"S\": 1}, \"8\": {\"S\": 1}, \"9\": {\"S\": 1}, \"10\": {\"S\": 1}, \"11\": {\"S\": 1}, \"12\": {\"Cl\": 1}}" energy=-53.3634147644043 free_energy=-53.3634147644043 stress="-0.0007942087249830365 -2.2843043723241863e-07 -1.547931987033735e-07 -2.2843043723241863e-07 -0.00079396489309147 -1.05002463612891e-07 -1.547931987033735e-07 -1.05002463612891e-07 -0.0007939099450595677" pbc="T T T"
Li       9.25387995       7.24703237       3.10460814        0       0.00000000       0.00000000       0.00000000       0.00422589      -0.00243458       0.00344834
Li      12.55222827       5.34273008       5.79769826        1       0.00000000       0.00000000       0.00000000      -0.00421146       0.00243346      -0.00344180
Li       9.25387995       5.34273008       5.79769826        2       0.00000000       0.00000000       0.00000000       0.00422423       0.00243895      -0.00344646
Li      12.55222827       7.24703237       3.10460814        3       0.00000000       0.00000000       0.00000000      -0.00421142      -0.00243066       0.00344050
Li      10.90305411       4.39057894       3.10460814        4       0.00000000       0.00000000       0.00000000       0.00000266       0.00487623       0.00344799
Li      10.90305411       8.19918351       5.79769826        5       0.00000000       0.00000000       0.00000000       0.00000200      -0.00486327      -0.00344122
P        7.26870274       4.19658748       2.96743547        6       0.00000000       0.00000000       0.00000000       0.00008495       0.00004620       0.00003603
S        7.26870637       6.13578650       2.28182731        7       0.00000000       0.00000000       0.00000000      -0.00001823      -0.01091053       0.00384805
S        8.94810016       3.22699113       2.28182731        8       0.00000000       0.00000000       0.00000000      -0.00945782       0.00544019       0.00384701
S        5.58931258       3.22699113       2.28182731        9       0.00000000       0.00000000       0.00000000       0.00937819       0.00541297       0.00383044
S        7.26870637       4.19658958       5.02426588       10       0.00000000       0.00000000       0.00000000      -0.00001904      -0.00000971      -0.01156911
S       10.90305411       6.29488123       4.45115320       11       0.00000000       0.00000000       0.00000000      -0.00000133      -0.00000033      -0.00000063
Cl       0.00000000       0.00000000       0.00000000       12       0.00000000       0.00000000       0.00000000       0.00000136       0.00000096       0.00000086
13
Lattice="7.26870274 0.0 0.0 3.634351370000001 6.294881225397555 0.0 3.634351370000001 2.0982937417991856 5.934870934989993" Properties=species:S:1:pos:R:3:spacegroup_kinds:I:1:momenta:R:3:forces:R:3 spacegroup="P 1" unit_cell=conventional occupancy="_JSON {\"0\": {\"Li\": 1}, \"1\": {\"Li\": 1}, \"2\": {\"Li\": 1}, \"3\": {\"Li\": 1}, \"4\": {\"Li\": 1}, \"5\": {\"Li\": 1}, \"6\": {\"P\": 1}, \"7\": {\"S\": 1}, \"8\": {\"S\": 1}, \"9\": {\"S\": 1}, \"10\": {\"S\": 1}, \"11\": {\"S\": 1}, \"12\": {\"Cl\": 1}}" energy=-53.363365173339844 free_energy=-53.363365173339844 stress="-0.0007748370990157127 1.997050640056841e-05 -1.3396886970440391e-05 1.997050640056841e-05 -0.0007871742709539831 4.3217831262154505e-05 -1.3396886970440391e-05 4.3217831262154505e-05 -0.0008196961716748774" pbc="T T T"
Li       9.25472892       7.24663864       3.10450307        0       0.08249351       0.05689434       0.00951632       0.00470430      -0.00155254       0.00340907
Li      12.55283389       5.34283555       5.79850622        1       0.03093163      -0.00604526       0.05479561      -0.00760406       0.00481196      -0.00689368
Li       9.25277954       5.34235505       5.79820888        2      -0.03540653      -0.03476637       0.03448992       0.00969527       0.00674416      -0.00717906
Li      12.55492803       7.24699353       3.10668879        3       0.04683957       0.03725590       0.07779016      -0.00899016       0.00030426       0.00765098
Li      10.90284444       4.39005526       3.10470546        4      -0.04919662      -0.00966076      -0.05426382      -0.00058686       0.00662130       0.00450359
Li      10.90301766       8.20002499       5.79940149        5      -0.06236066       0.01919354       0.05830693      -0.00063789      -0.00854191      -0.01140816
P        7.26812351       4.19707738       2.96711050        6      -0.09583015       0.12139959       0.11252178       0.00797682      -0.01441205       0.00279332
S        7.26906739       6.13566155       2.28191976        7       0.12429221      -0.15143348      -0.05205256       0.00037267      -0.00139078       0.00197892
S        8.94762274       3.22697838       2.28121121        8      -0.20480446      -0.04209280      -0.25332245      -0.01242366       0.00639837       0.01018652
S        5.58914030       3.22687271       2.28132260        9      -0.06989201       0.04529471      -0.09337791       0.00881467       0.00663727       0.00826351
S        7.26875278       4.19769262       5.02409362       10       0.10700253       0.27122388      -0.20525952      -0.00265667      -0.00535542      -0.01446889
S       10.90305558       6.29483560       4.45160259       11      -0.02478463       0.00772404       0.13761538       0.00266748       0.00057557       0.00265147
Cl       0.00034462      -0.00107301      -0.00014532       12       0.15071560      -0.31498734       0.17324017      -0.00133191      -0.00084010      -0.00148764
13
Lattice="7.26870274 0.0 0.0 3.634351370000001 6.294881225397555 0.0 3.634351370000001 2.0982937417991856 5.934870934989993" Properties=species:S:1:pos:R:3:spacegroup_kinds:I:1:momenta:R:3:forces:R:3 spacegroup="P 1" unit_cell=conventional occupancy="_JSON {\"0\": {\"Li\": 1}, \"1\": {\"Li\": 1}, \"2\": {\"Li\": 1}, \"3\": {\"Li\": 1}, \"4\": {\"Li\": 1}, \"5\": {\"Li\": 1}, \"6\": {\"P\": 1}, \"7\": {\"S\": 1}, \"8\": {\"S\": 1}, \"9\": {\"S\": 1}, \"10\": {\"S\": 1}, \"11\": {\"S\": 1}, \"12\": {\"Cl\": 1}}" energy=-53.363006591796875 free_energy=-53.363006591796875 stress="-0.0006479520234279335 8.722488564671949e-05 -1.7124351870734245e-05 8.722488564671949e-05 -0.0009135291329585016 0.0001647091849008575 -1.7124351870734245e-05 0.0001647091849008575 -0.0011624625185504556" pbc="T T T"
Li       9.25683190       7.24801625       3.10298700        0       0.05358337       0.03845878      -0.08214666       0.00693462      -0.00482188       0.00581821
Li      12.55310652       5.34190975       5.79976994        1      -0.03414902       0.00596015       0.01415842      -0.01363865       0.00807462      -0.01341626
Li       9.24902449       5.34203609       5.79850941        2      -0.11106873       0.00103676      -0.04616714       0.02467639       0.01883490      -0.00919090
Li      12.55590421       7.24664616       3.10834801        3       0.03984691      -0.03941523       0.09900226      -0.00728764       0.00439967       0.00649355
Li      10.89976223       4.39007618       3.10101564        4      -0.08196432      -0.03867906      -0.18779163       0.00491710       0.01589845       0.00771135
Li      10.90313252       8.20013704       5.80116464        5       0.00343318      -0.00620351       0.12148026      -0.00181589      -0.01338366      -0.01844546
P        7.26764592       4.19918124       2.96876238        6      -0.03284219       0.23743165       0.21762392      -0.00199647      -0.06668609      -0.05804791
S        7.27117487       6.13471565       2.28241908        7       0.34742479      -0.13673083       0.13172886      -0.00856553       0.03762392      -0.00390133
S        8.94626436       3.22809660       2.27981683        8      -0.18381147       0.41524665      -0.01284810      -0.01756339      -0.00355587       0.02166047
S        5.58782719       3.22712039       2.28113283        9      -0.14747151       0.14263222      -0.03020586       0.02816369       0.02316400       0.02115300
S        7.26956033       4.19870549       5.02221736       10       0.09366091       0.10124423      -0.40211759      -0.01189394      -0.01382467       0.03493521
S       10.90294869       6.29427438       4.45210689       11      -0.09249377      -0.24014892      -0.02579599       0.00035522      -0.00255290       0.00453876
Cl       0.00132856      -0.00370959       0.00074451       12       0.14585184      -0.48083288       0.20307924      -0.00228544      -0.00317051       0.00069120
13
Lattice="7.26870274 0.0 0.0 3.634351370000001 6.294881225397555 0.0 3.634351370000001 2.0982937417991856 5.934870934989993" Properties=species:S:1:pos:R:3:spacegroup_kinds:I:1:momenta:R:3:forces:R:3 spacegroup="P 1" unit_cell=conventional occupancy="_JSON {\"0\": {\"Li\": 1}, \"1\": {\"Li\": 1}, \"2\": {\"Li\": 1}, \"3\": {\"Li\": 1}, \"4\": {\"Li\": 1}, \"5\": {\"Li\": 1}, \"6\": {\"P\": 1}, \"7\": {\"S\": 1}, \"8\": {\"S\": 1}, \"9\": {\"S\": 1}, \"10\": {\"S\": 1}, \"11\": {\"S\": 1}, \"12\": {\"Cl\": 1}}" energy=-53.361717224121094 free_energy=-53.361717224121094 stress="-0.0006838417029939592 0.00026188846095465124 2.9260369046824053e-05 0.00026188846095465124 -0.0010670956689864397 0.0003634965396486223 2.9260369046824053e-05 0.0003634965396486223 -0.001540071447379887" pbc="T T T"
Li       9.25940280       7.25001154       3.10091893        0       0.09672260       0.09344969      -0.06081176       0.01096366      -0.01019409       0.00904497
Li      12.55238408       5.34315448       5.79822428        1       0.03139451       0.07308885      -0.10442412      -0.01142030       0.00618571      -0.00826165
Li       9.24562611       5.34236314       5.79733934        2      -0.05436872       0.05749003       0.02135493       0.03578552       0.02860988      -0.00598389
Li      12.55789390       7.24465081       3.11156299        3       0.11621975      -0.04736431       0.10739882      -0.00602859       0.01654176       0.00225338
Li      10.89712541       4.38501774       3.09422170        4      -0.10421106      -0.16323682      -0.19217753       0.00947352       0.04637874       0.02594574
Li      10.90439650       8.20153143       5.80595131        5       0.02483539       0.03742236       0.14048201      -0.00296137      -0.03053659      -0.04111331
P        7.26765321       4.20174567       2.97065829        6       0.02315445       0.34259194       0.19084057      -0.03174804      -0.12642436      -0.11204301
S        7.27357801       6.13356917       2.28337839        7       0.45884220       0.03451210       0.09586571      -0.01809291       0.08954019      -0.00905058
S        8.94458262       3.23084208       2.27946466        8      -0.23832078       0.25651415      -0.10031533      -0.01630991      -0.03586737       0.01420839
S        5.58590694       3.22778738       2.28181546        9      -0.39897374       0.12980043       0.21121080       0.06270865       0.03841466       0.02310362
S        7.26988642       4.19933570       5.02025329       10      -0.04095923      -0.06669757      -0.17742922      -0.02130370      -0.01618080       0.09351101
S       10.90276297       6.29231176       4.45092694       11       0.00598450      -0.25859050      -0.14799651      -0.00554204       0.00092295       0.00715842
Cl       0.00252303      -0.00632302       0.00153069       12       0.07968013      -0.48898033       0.01600163      -0.00552444      -0.00739065       0.00122692
13
Lattice="7.26870274 0.0 0.0 3.634351370000001 6.294881225397555 0.0 3.634351370000001 2.0982937417991856 5.934870934989993" Properties=species:S:1:pos:R:3:spacegroup_kinds:I:1:momenta:R:3:forces:R:3 spacegroup="P 1" unit_cell=conventional occupancy="_JSON {\"0\": {\"Li\": 1}, \"1\": {\"Li\": 1}, \"2\": {\"Li\": 1}, \"3\": {\"Li\": 1}, \"4\": {\"Li\": 1}, \"5\": {\"Li\": 1}, \"6\": {\"P\": 1}, \"7\": {\"S\": 1}, \"8\": {\"S\": 1}, \"9\": {\"S\": 1}, \"10\": {\"S\": 1}, \"11\": {\"S\": 1}, \"12\": {\"Cl\": 1}}" energy=-53.3597412109375 free_energy=-53.3597412109375 stress="-0.0005907347658649087 0.00046396616380661726 0.00012987430091015995 0.00046396616380661726 -0.0009520931052975357 0.0004781196766998619 0.00012987430091015995 0.0004781196766998619 -0.0018109988886862993" pbc="T T T"
Li       9.26024585       7.25082592       3.10002048        0      -0.03032130      -0.01809360      -0.06632067       0.02057620      -0.00594236       0.01355370
Li      12.55242034       5.34412128       5.79545089        1       0.02746993      -0.01890876      -0.00325740      -0.00640599       0.00439356       0.00052314
Li       9.24653174       5.34260566       5.79830828        2       0.10573745      -0.09313768       0.00875078       0.03313229       0.02921713      -0.00551327
Li      12.56037379       7.24128267       3.11682794        3       0.10705779      -0.08068229       0.12209717       0.00056830       0.03198731      -0.00481633
Li      10.89148150       4.37972418       3.08961549        4      -0.22780717      -0.17575743      -0.12148523       0.02088068       0.07562442       0.04436972
Li      10.90529654       8.20305823       5.81096038        5       0.06013628       0.07574694       0.18179823      -0.00335634      -0.04656289      -0.06484190
P        7.26868938       4.20412281       2.97174109        6       0.14038870       0.28445446       0.04937453      -0.08747077      -0.17412409      -0.15684775
S        7.27717555       6.13425925       2.28309813        7       0.54326532       0.10518504      -0.03160091      -0.03070162       0.10654916      -0.00069457
S        8.94321699       3.23206953       2.27894412        8      -0.05324688       0.09174902      -0.10014853      -0.02238828      -0.06497478       0.00293207
S        5.58185225       3.22974871       2.28270561        9      -0.72662690       0.34773997       0.19178914       0.11967698       0.05953212       0.03280251
S        7.26976937       4.19851988       5.01866762       10      -0.00732527      -0.12893666      -0.19537786      -0.01664459      -0.00579702       0.13190475
S       10.90357752       6.29129215       4.45049867       11       0.09744700       0.01317466      -0.00934050      -0.01840869      -0.00005173       0.00759437
Cl       0.00274975      -0.00938342       0.00163742       12      -0.03617494      -0.40253366      -0.02627876      -0.00945823      -0.00985072      -0.00096639
13
Lattice="7.26870274 0.0 0.0 3.634351370000001 6.294881225397555 0.0 3.634351370000001 2.0982937417991856 5.934870934989993" Properties=species:S:1:pos:R:3:spacegroup_kinds:I:1:momenta:R:3:forces:R:3 spacegroup="P 1" unit_cell=conventional occupancy="_JSON {\"0\": {\"Li\": 1}, \"1\": {\"Li\": 1}, \"2\": {\"Li\": 1}, \"3\": {\"Li\": 1}, \"4\": {\"Li\": 1}, \"5\": {\"Li\": 1}, \"6\": {\"P\": 1}, \"7\": {\"S\": 1}, \"8\": {\"S\": 1}, \"9\": {\"S\": 1}, \"10\": {\"S\": 1}, \"11\": {\"S\": 1}, \"12\": {\"Cl\": 1}}" energy=-53.35717010498047 free_energy=-53.35717010498047 stress="-0.00038158625829964876 0.000620791397523135 0.0001983481488423422 0.000620791397523135 -0.0007231533527374268 0.0004823717463295907 0.0001983481488423422 0.0004823717463295907 -0.001910451683215797" pbc="T T T"
Li       9.26064545       7.25118231       3.09617654        0       0.06871227       0.01801082      -0.15583604       0.03800375      -0.00376037       0.02348340
Li      12.55434964       5.34342372       5.79383234        1      -0.00357215      -0.04481343      -0.10712158      -0.01220745       0.00864210      -0.00143348
Li       9.24863574       5.33854350       5.79782654        2       0.00709151      -0.13478090      -0.01392667       0.03473952       0.03073843       0.00082841
Li      12.56705112       7.24022842       3.11942479        3       0.24167025      -0.05341841       0.04264077      -0.01688349       0.03568390       0.00777436
Li      10.88613491       4.37515699       3.08645618        4      -0.12288004      -0.08088926      -0.00383005       0.03026652       0.10651565       0.06472531
Li      10.90693939       8.20528802       5.81616230        5       0.09723624       0.04793242       0.15143482      -0.00460777      -0.06724130      -0.08889742
P        7.26934686       4.20546999       2.97256828        6       0.00254511       0.13977214       0.13809535      -0.13132468      -0.20524430      -0.19927852
S        7.27889148       6.13573269       2.28307240        7       0.06877492       0.26340625       0.00310449      -0.02773071       0.09578425       0.01043063
S        8.94290489       3.23227103       2.27729040        8      -0.00615633       0.02944201      -0.26149076      -0.04789734      -0.07198855       0.00328371
S        5.57630237       3.23299806       2.28476337        9      -0.68565019       0.33288607       0.25208094       0.17971386       0.07129458       0.03142149
S        7.26940595       4.19683387       5.01763300       10      -0.11157273      -0.25554491      -0.10295939      -0.00550870       0.00482074       0.15371747
S       10.90445569       6.29110328       4.45120766       11       0.10249121      -0.04342258       0.17473842      -0.01990411       0.00207769      -0.00360917
Cl       0.00393588      -0.01184292       0.00103839       12       0.34130992      -0.21858022      -0.11693029      -0.01665939      -0.00732286      -0.00244612
13
Lattice="7.26870274 0.0 0.0 3.634351370000001 6.294881225397555 0.0 3.634351370000001 2.0982937417991856 5.934870934989993" Properties=species:S:1:pos:R:3:spacegroup_kinds:I:1:momenta:R:3:forces:R:3 spacegroup="P 1" unit_cell=conventional occupancy="_JSON {\"0\": {\"Li\": 1}, \"1\": {\"Li\": 1}, \"2\": {\"Li\": 1}, \"3\": {\"Li\": 1}, \"4\": {\"Li\": 1}, \"5\": {\"Li\": 1}, \"6\": {\"P\": 1}, \"7\": {\"S\": 1}, \"8\": {\"S\": 1}, \"9\": {\"S\": 1}, \"10\": {\"S\": 1}, \"11\": {\"S\": 1}, \"12\": {\"Cl\": 1}}" energy=-53.35411834716797 free_energy=-53.35411834716797 stress="-0.00016806591884233057 0.0008065627189353108 0.000192712337593548 0.0008065627189353108 -0.0004311538941692561 0.00040630961302667856 0.000192712337593548 0.00040630961302667856 -0.0021182354539632797" pbc="T T T"
Li       9.26356858       7.25060758       3.09124748        0       0.07455893      -0.05790149      -0.09405563       0.04769233      -0.00147156       0.02734280
Li      12.55535303       5.34212410       5.78951144        1       0.00512776      -0.00039035      -0.09942961      -0.01627123       0.01132311       0.01018446
Li       9.24788219       5.33521623       5.79738276        2      -0.02176015      -0.04525684       0.08710680       0.04243788       0.03751415       0.00302061
Li      12.57531066       7.24062624       3.11777324        3       0.25776939       0.03910404      -0.10692674      -0.04948526       0.03325765       0.03066798
Li      10.88315470       4.37201097       3.08646319        4      -0.04370242      -0.11337148       0.01973460       0.03441711       0.12560557       0.07835431
Li      10.90778234       8.20634133       5.82172011        5      -0.01411808       0.03761356       0.18713252      -0.00637454      -0.08377114      -0.11076729
P        7.26932105       4.20593018       2.97429363        6      -0.07847268      -0.04051367       0.25867992      -0.15591699      -0.21765107      -0.27473170
S        7.27936334       6.13772056       2.28340517        7      -0.01759757       0.31436128      -0.04863707      -0.01378009       0.06469730       0.02720068
S        8.94323030       3.23254456       2.27668333        8       0.08521407       0.00628510       0.01557278      -0.07500328      -0.06465872      -0.00268368
S        5.57162105       3.23544100       2.28605043        9      -0.54122672       0.32518478       0.08538705       0.22731686       0.07994266       0.03248761
S        7.26825330       4.19452373       5.01594713       10      -0.04496440      -0.36140748      -0.32682506       0.00274789       0.01290917       0.19840017
S       10.90514500       6.29179921       4.45209668       11      -0.05595662       0.19600201       0.07913030      -0.01621846       0.00547136      -0.01739011
Cl       0.00604578      -0.01375965       0.00041523       12       0.39512848      -0.29970946      -0.05686982      -0.02156218      -0.00316847      -0.00208581
13
Lattice="7.26870274 0.0 0.0 3.634351370000001 6.294881225397555 0.0 3.634351370000001 2.0982937417991856 5.934870934989993" Properties=species:S:1:pos:R:3:spacegroup_kinds:I:1:momenta:R:3:forces:R:3 spacegroup="P 1" unit_cell=conventional occupancy="_JSON {\"0\": {\"Li\": 1}, \"1\": {\"Li\": 1}, \"2\": {\"Li\": 1}, \"3\": {\"Li\": 1}, \"4\": {\"Li\": 1}, \"5\": {\"Li\": 1}, \"6\": {\"P\": 1}, \"7\": {\"S\": 1}, \"8\": {\"S\": 1}, \"9\": {\"S\": 1}, \"10\": {\"S\": 1}, \"11\": {\"S\": 1}, \"12\": {\"Cl\": 1}}" energy=-53.35015106201172 free_energy=-53.35015106201172 stress="3.668747376650572e-05 0.0009092051186598837 0.0001575345522724092 0.0009092051186598837 1.597780101292301e-05 0.00028593980823643506 0.0001575345522724092 0.00028593980823643506 -0.002464870223775506" pbc="T T T"
Li       9.26531679       7.24936895       3.08763665        0       0.06556821      -0.00812217      -0.04258272       0.05663491       0.00392663       0.03100348
Li      12.55668713       5.34325980       5.78538309        1       0.08379674       0.10641826      -0.07743229      -0.01571915       0.01360574       0.02565654
Li       9.24730961       5.33434445       5.79747767        2      -0.00683915       0.03700819      -0.00476589       0.04730174       0.04344294       0.00296973
Li      12.58491160       7.24266027       3.11327001        3       0.27727697       0.12173758      -0.15518816      -0.09427302       0.02130414       0.06458920
Li      10.88289435       4.36826950       3.08926914        4       0.01253846      -0.08763183       0.12776546       0.02681717       0.13781533       0.09023565
Li      10.90615896       8.20938159       5.82684480        5      -0.10836752       0.09596505       0.12565101      -0.00915257      -0.10848735      -0.13214582
P        7.26827701       4.20538050       2.97752645        6      -0.03464812      -0.12704252       0.45432911      -0.14654109      -0.19818431      -0.39157555
S        7.27916854       6.14045987       2.28286118        7       0.10411030       0.47450407      -0.05305218       0.00647276       0.00092217       0.05771220
S        8.94292652       3.23067936       2.27688840        8      -0.14175372      -0.41756364       0.06672865      -0.10255999      -0.03379337      -0.00655702
S        5.56810752       3.23855776       2.28613550        9      -0.48749007       0.50141776      -0.03354876       0.25496823       0.07387838       0.03831372
S        7.26816277       4.19186566       5.01414287       10      -0.07688490      -0.41500633      -0.33106854       0.00332682       0.02908804       0.26440701
S       10.90543961       6.29267986       4.45409398       11       0.10698075       0.13615199       0.41012688      -0.00447518       0.01690789      -0.04087093
Cl       0.00846657      -0.01554303      -0.00139398       12       0.20571204      -0.41783643      -0.48696254      -0.02280065      -0.00042622      -0.00373820
13
Lattice="7.26870274 0.0 0.0 3.634351370000001 6.294881225397555 0.0 3.634351370000001 2.0982937417991856 5.934870934989993" Properties=species:S:1:pos:R:3:spacegroup_kinds:I:1:momenta:R:3:forces:R:3 spacegroup="P 1" unit_cell=conventional occupancy="_JSON {\"0\": {\"Li\": 1}, \"1\": {\"Li\": 1}, \"2\": {\"Li\": 1}, \"3\": {\"Li\": 1}, \"4\": {\"Li\": 1}, \"5\": {\"Li\": 1}, \"6\": {\"P\": 1}, \"7\": {\"S\": 1}, \"8\": {\"S\": 1}, \"9\": {\"S\": 1}, \"10\": {\"S\": 1}, \"11\": {\"S\": 1}, \"12\": {\"Cl\": 1}}" energy=-53.345157623291016 free_energy=-53.345157623291016 stress="0.00015234635793603957 0.0010552848689258099 7.473277946701273e-05 0.0010552848689258099 0.00044984929263591766 8.864491974236444e-05 7.473277946701273e-05 8.864491974236444e-05 -0.0028997682966291904" pbc="T T T"
Li       9.26636665       7.24742503       3.08968974        0       0.01545948      -0.08349589       0.15967499       0.05872140       0.02332037       0.02884650
Li      12.55989762       5.34747531       5.78187128        1       0.11890681       0.15127790      -0.19535140      -0.01311812       0.01895380       0.03941754
Li       9.24508645       5.33245103       5.79611786        2      -0.06185145      -0.10400649      -0.02300485       0.05306872       0.04812164       0.00755655
Li      12.59518998       7.24732855       3.10719779        3       0.29946952       0.21836557      -0.11969035      -0.14062028      -0.00139081       0.10570271
Li      10.88427217       4.36880266       3.09323164        4       0.07414353       0.09114054       0.14658810       0.01547988       0.13548341       0.09192373
Li      10.90168632       8.21364890       5.83096508        5      -0.13654455       0.19271478       0.10494195      -0.01165893      -0.13866022      -0.14398244
P        7.26841361       4.20378776       2.98005195        6       0.10634531      -0.24285602       0.25330512      -0.15804161      -0.14458974      -0.51040959
S        7.28071028       6.14446903       2.28344558        7       0.15102029       0.40856388       0.10409128       0.02734444      -0.08338628       0.08697142
S        8.94240114       3.22799141       2.27748563        8       0.03355425      -0.37995392       0.21323790      -0.10351457       0.00166847      -0.01654368
S        5.56529882       3.24305249       2.28598942        9      -0.26385252       0.59196663       0.04405049       0.27262655       0.05515311       0.03826986
S        7.26642466       4.18714214       5.01133794       10      -0.21238008      -0.77418466      -0.38374409       0.01015759       0.05323433       0.34019640
S       10.90611269       6.29374946       4.45719637       11      -0.04545895       0.18221125       0.38012183       0.01026274       0.03355091      -0.06131671
Cl       0.00915278      -0.01796035      -0.00481840       12      -0.07881162      -0.25174359      -0.68422095      -0.02070791      -0.00145896      -0.00663221
13
Lattice="7.26870274 0.0 0.0 3.634351370000001 6.294881225397555 0.0 3.634351370000001 2.0982937417991856 5.934870934989993" Properties=species:S:1:pos:R:3:spacegroup_kinds:I:1:momenta:R:3:forces:R:3 spacegroup="P 1" unit_cell=conventional occupancy="_JSON {\"0\": {\"Li\": 1}, \"1\": {\"Li\": 1}, \"2\": {\"Li\": 1}, \"3\": {\"Li\": 1}, \"4\": {\"Li\": 1}, \"5\": {\"Li\": 1}, \"6\": {\"P\": 1}, \"7\": {\"S\": 1}, \"8\": {\"S\": 1}, \"9\": {\"S\": 1}, \"10\": {\"S\": 1}, \"11\": {\"S\": 1}, \"12\": {\"Cl\": 1}}" energy=-53.33992385864258 free_energy=-53.33992385864258 stress="0.00015204455121420324 0.001204980886541307 -3.498330625006929e-05 0.001204980886541307 0.0006147577660158277 -7.493989687645808e-05 -3.498330625006929e-05 -7.493989687645808e-05 -0.0033931599464267492" pbc="T T T"
Li       9.26918874       7.24356244       3.09658824        0       0.12597114      -0.08531891       0.23290080       0.03955850       0.05518959       0.00990906
Li      12.56440180       5.35253361       5.77728944        1       0.12211167       0.16819930      -0.07306539      -0.01042114       0.02467541       0.05665160
Li       9.24345250       5.32790055       5.79539500        2      -0.02185606      -0.11081518      -0.08764028       0.06069845       0.04971077       0.01055449
Li      12.60622749       7.25430709       3.10458878        3       0.33508308       0.20016613      -0.01570109      -0.17861634      -0.02590491       0.14558005
Li      10.88758370       4.37122785       3.09990993        4       0.10431534       0.06082369       0.25246522      -0.00042455       0.11996953       0.08608158
Li      10.89620900       8.21853799       5.83416898        5      -0.17524545       0.07381763       0.08988079      -0.01373703      -0.16979969      -0.14904340
P        7.26867375       4.20172298       2.98087154        6       0.02130470      -0.20329406      -0.09475979      -0.15965457      -0.09746271      -0.58934516
S        7.28211219       6.14698711       2.28517018        7       0.18142721       0.32732502       0.46535272       0.05130739      -0.13802777       0.10145594
S        8.94252403       3.22515108       2.27967150        8      -0.02637226      -0.42199326       0.37612071      -0.09153114       0.03710828      -0.04250841
S        5.56339807       3.24792583       2.28634893        9      -0.24872980       0.59022009       0.05027497       0.27133122       0.01908232       0.03089720
S        7.26536785       4.18136717       5.00786964       10      -0.12920140      -0.73694293      -0.52206342       0.01263093       0.08157514       0.41126478
S       10.90555504       6.29518930       4.45914520       11      -0.01737276       0.12314033       0.08604405       0.03834241       0.04652318      -0.05793528
Cl       0.00784970      -0.01852846      -0.00974483       12      -0.27143539       0.01467216      -0.75980927      -0.01948412      -0.00263917      -0.01356244
13