13
Lattice="7.26870274 0.0 0.0 3.634351370000001 6.294881225397555 0.0 3.634351370000001 2.0982937417991856 5.934870934989993" Properties=species:S:1:pos:R:3:spacegroup_kinds:I:1:forces:R:3 spacegroup="P 1" unit_cell=conventional occupancy="_JSON {\"0\": {\"Li\": 1}, \"1\": {\"Li\": 1}, \"2\": {\"Li\": 1}, \"3\": {\"Li\": 1}, \"4\": {\"Li\": 1}, \"5\": {\"Li\": 1}, \"6\": {\"P\": 1}, \"7\": {\"S\": 1}, \"8\": {\"S\": 1}, \"9\": {\"S\": 1}, \"10\": {\"S\": 1}, \"11\": {\"S\": 1}, \"12\": {\"Cl\": 1}}" energy=-53.3634147644043 free_energy=-53.3634147644043 stress="-0.0007942087249830365 -2.2843043723241863e-07 -1.547931987033735e-07 -2.2843043723241863e-07 -0.00079396489309147 -1.05002463612891e-07 -1.547931987033735e-07 -1.05002463612891e-07 -0.0007939099450595677" pbc="T T T"
Li       9.25387995       7.24703237       3.10460814        0       0.00422589      -0.00243458       0.00344834
Li      12.55222827       5.34273008       5.79769826        1      -0.00421146       0.00243346      -0.00344180
Li       9.25387995       5.34273008       5.79769826        2       0.00422423       0.00243895      -0.00344646
Li      12.55222827       7.24703237       3.10460814        3      -0.00421142      -0.00243066       0.00344050
Li      10.90305411       4.39057894       3.10460814        4       0.00000266       0.00487623       0.00344799
Li      10.90305411       8.19918351       5.79769826        5       0.00000200      -0.00486327      -0.00344122
P        7.26870274       4.19658748       2.96743547        6       0.00008495       0.00004620       0.00003603
S        7.26870637       6.13578650       2.28182731        7      -0.00001823      -0.01091053       0.00384805
S        8.94810016       3.22699113       2.28182731        8      -0.00945782       0.00544019       0.00384701
S        5.58931258       3.22699113       2.28182731        9       0.00937819       0.00541297       0.00383044
S        7.26870637       4.19658958       5.02426588       10      -0.00001904      -0.00000971      -0.01156911
S       10.90305411       6.29488123       4.45115320       11      -0.00000133      -0.00000033      -0.00000063
Cl       0.00000000       0.00000000       0.00000000       12       0.00000136       0.00000096       0.00000086
