13
Lattice="7.26870274 0.0 0.0 3.634351370000001 6.294881225397555 0.0 3.634351370000001 2.0982937417991856 5.934870934989993" Properties=species:S:1:pos:R:3:spacegroup_kinds:I:1:forces:R:3 spacegroup="P 1" unit_cell=conventional occupancy="_JSON {\"0\": {\"Li\": 1}, \"1\": {\"Li\": 1}, \"2\": {\"Li\": 1}, \"3\": {\"Li\": 1}, \"4\": {\"Li\": 1}, \"5\": {\"Li\": 1}, \"6\": {\"P\": 1}, \"7\": {\"S\": 1}, \"8\": {\"S\": 1}, \"9\": {\"S\": 1}, \"10\": {\"S\": 1}, \"11\": {\"S\": 1}, \"12\": {\"Cl\": 1}}" energy=-53.3634147644043 free_energy=-53.3634147644043 stress="-0.0007942111697047949 -2.3284232497644552e-07 -1.5145775478231371e-07 -2.3284232497644552e-07 -0.000793939980212599 -1.078624833894537e-07 -1.5145775478231371e-07 -1.078624833894537e-07 -0.0007939167553558946" pbc="T T T"
Li       9.25387995       7.24703237       3.10460814        0       0.00422624      -0.00243503       0.00344830
Li      12.55222827       5.34273008       5.79769826        1      -0.00421035       0.00243331      -0.00344102
Li       9.25387995       5.34273008       5.79769826        2       0.00422490       0.00243874      -0.00344682
Li      12.55222827       7.24703237       3.10460814        3      -0.00421164      -0.00243059       0.00344080
Li      10.90305411       4.39057894       3.10460814        4       0.00000250       0.00487642       0.00344861
Li      10.90305411       8.19918351       5.79769826        5       0.00000208      -0.00486369      -0.00344179
P        7.26870274       4.19658748       2.96743547        6       0.00008600       0.00004661       0.00003629
S        7.26870637       6.13578650       2.28182731        7      -0.00001818      -0.01090968       0.00384775
S        8.94810016       3.22699113       2.28182731        8      -0.00945885       0.00544051       0.00384723
S        5.58931258       3.22699113       2.28182731        9       0.00937747       0.00541291       0.00382972
S        7.26870637       4.19658958       5.02426588       10      -0.00001949      -0.00000972      -0.01156990
S       10.90305411       6.29488123       4.45115320       11      -0.00000154      -0.00000077       0.00000028
Cl       0.00000000       0.00000000       0.00000000       12       0.00000094       0.00000096       0.00000052
