4
Lattice="3.128588 0.0 0.0 -1.5642939988088433 2.709436998432005 0.0 0.0 0.0 5.016955" Properties=species:S:1:pos:R:3:spacegroup_kinds:I:1:forces:R:3 spacegroup="P 1" unit_cell=conventional occupancy="_JSON {\"0\": {\"Al\": 1}, \"1\": {\"Al\": 1}, \"2\": {\"N\": 1}, \"3\": {\"N\": 1}}" energy=-29.673717498779297 free_energy=-29.673717498779297 stress="-0.0022253915667533875 -1.3039668829151196e-06 -3.572575835164571e-08 -1.3039668829151196e-06 -0.0022274355869740248 -2.636829776747618e-08 -3.572575835164571e-08 -2.636829776747618e-08 -0.005453664809465408" pbc="T T T"
Al       1.56429556       0.90314476       2.50490041        0      -0.00003482       0.00001940       0.00553242
Al      -0.00000156       1.80629224       5.01337791        1       0.00003445      -0.00001968       0.00552364
N        1.56429556       0.90314476       4.41849749        2      -0.00003627       0.00001979      -0.00553002
N       -0.00000156       1.80629224       1.91001999        3       0.00003672      -0.00001939      -0.00552602
