56
Lattice="10.7619164 0.0 0.0 -9.665296305262016 4.732958053065482 0.0 -0.5483100463354086 -2.3664790220718444 10.484177494289693" Properties=species:S:1:pos:R:3:spacegroup_kinds:I:1:momenta:R:3:forces:R:3 spacegroup="P 1" unit_cell=conventional occupancy="_JSON {\"0\": {\"H\": 1}, \"1\": {\"H\": 1}, \"2\": {\"H\": 1}, \"3\": {\"H\": 1}, \"4\": {\"H\": 1}, \"5\": {\"H\": 1}, \"6\": {\"H\": 1}, \"7\": {\"H\": 1}, \"8\": {\"H\": 1}, \"9\": {\"H\": 1}, \"10\": {\"H\": 1}, \"11\": {\"H\": 1}, \"12\": {\"H\": 1}, \"13\": {\"H\": 1}, \"14\": {\"H\": 1}, \"15\": {\"H\": 1}, \"16\": {\"H\": 1}, \"17\": {\"H\": 1}, \"18\": {\"H\": 1}, \"19\": {\"H\": 1}, \"20\": {\"H\": 1}, \"21\": {\"H\": 1}, \"22\": {\"H\": 1}, \"23\": {\"H\": 1}, \"24\": {\"H\": 1}, \"25\": {\"H\": 1}, \"26\": {\"H\": 1}, \"27\": {\"H\": 1}, \"28\": {\"H\": 1}, \"29\": {\"H\": 1}, \"30\": {\"H\": 1}, \"31\": {\"H\": 1}, \"32\": {\"C\": 1}, \"33\": {\"C\": 1}, \"34\": {\"C\": 1}, \"35\": {\"C\": 1}, \"36\": {\"C\": 1}, \"37\": {\"C\": 1}, \"38\": {\"C\": 1}, \"39\": {\"C\": 1}, \"40\": {\"C\": 1}, \"41\": {\"C\": 1}, \"42\": {\"C\": 1}, \"43\": {\"C\": 1}, \"44\": {\"C\": 1}, \"45\": {\"C\": 1}, \"46\": {\"C\": 1}, \"47\": {\"C\": 1}, \"48\": {\"O\": 1}, \"49\": {\"O\": 1}, \"50\": {\"O\": 1}, \"51\": {\"O\": 1}, \"52\": {\"O\": 1}, \"53\": {\"O\": 1}, \"54\": {\"O\": 1}, \"55\": {\"O\": 1}}" energy=-313.621826171875 free_energy=-313.621826171875 stress="-0.006905469112098217 -0.0013852964621037245 -0.004504721611738205 -0.0013852964621037245 0.009439174085855484 0.005600016098469496 -0.004504721611738205 0.005600016098469496 0.013407147489488125" pbc="T T T"
H        0.49738829       1.84331575       1.77824714        0      -0.10613575      -0.09781644       0.11564523      -0.18202235       0.31332347       0.59539676
H        0.10556163      -0.11663716       8.27653533        1       0.04015941      -0.13169438       0.14437770      -0.36897779      -0.78898442       0.22590798
H        6.62289069      -0.91207647       5.20265628        2      -0.16864449       0.10450040      -0.19164108       0.98595428      -0.03108585       0.77323198
H        3.36922872       0.56254905       5.08036097        3       0.12068365      -0.12390980       0.11664095      -0.39409187      -0.59535569      -0.23537356
H        5.95301278       0.59228766       3.38812101        4       0.14111124      -0.33747232      -0.07871932      -0.93092895      -0.50392097       0.87668347
H        5.01744008       0.42520665       7.32442036        5      -0.23162818       0.06489701      -0.14197656      -0.38864365      -1.26107681      -0.47848830
H       -1.57731809       0.54128688      10.53958340        6      -0.12407235      -0.08816687      -0.07763799      -0.37742066      -0.46802402       0.30722368
H        2.69863443       2.00433380       0.26116698        7      -0.05404024       0.01557089      -0.10225938      -0.72494572      -0.67532396      -0.86529660
H       -1.22303978       1.63673989       1.75940554        8      -0.05424805       0.24253081      -0.13897841      -0.49742165      -0.09367098       0.10530150
H       -8.93359150       2.96970995       8.47514781        9      -0.06041933      -0.12559537      -0.10761955       0.36623013      -0.63053209       0.55258721
H       -2.26849168       4.25937049       6.83350067       10       0.20578852       0.12214833       0.33238210      -0.06949985      -0.47619292      -0.34378278
H       -6.68836098       4.95609486       3.39407458       11      -0.06212335       0.10326048      -0.15893087       0.13254032      -0.56484830       0.15243736
H       -3.12925572       0.32645872       3.01954322       12       0.09286647       0.17897842      -0.00989699       0.31409156       0.11225733       0.01380568
H       -6.80751091       1.79512288       7.74588638       13       0.11313469      -0.05419523      -0.04504071      -2.35593581       0.59494531      -0.52510107
H       -1.67751148       0.97559848       8.80862355       14       0.00516176      -0.30016401      -0.16851615      -0.66055310       0.17538084       0.81928629
H       -7.85157874       2.25969179       2.02092928       15       0.06193650       0.16966486       0.04109171       0.45021665       0.30493188      -0.97372496
H       -1.03679262       0.54726093       4.10971780       16       0.09384626       0.18126219      -0.07858754       0.29054010       0.47455555       0.73893052
H        1.41496388       2.60741887       5.94194779       17       0.17914702       0.16208045      -0.08142760       0.04019887      -0.18983288       0.67822707
H       -0.64058335       2.00872428       6.06364867       18      -0.05634329       0.12337234       0.04032507      -0.53551745       0.51596594      -0.09276071
H        0.85977720      -0.92446386       4.06230142       19       0.08226659       0.01615416       0.13954181      -0.43778110      -0.05475605       0.42651767
H        7.07832373       1.52716363       0.77918393       20       0.03745953       0.06298963      -0.11847648      -0.51152164      -0.36470231      -0.19009516
H       -5.65481880       2.28567781       9.73114995       21       0.07723509       0.36926395      -0.07796210       0.09997766      -0.39058492       0.05155871
H        6.08095745      -2.02800059       9.57309346       22       0.04996159       0.13992099      -0.04251248       0.10451981      -0.44056523      -0.00563119
H       -5.39307796       3.26285559       1.28813565       23      -0.08191948      -0.05415601       0.26987144      -0.86361086      -0.75486618      -0.77635670
H       -0.07299386       0.27971750       1.81917018       24       0.13898031       0.34269368       0.14181110      -0.42563924      -0.34438229       0.62044436
H       -1.06700008      -1.51563937       8.21163902       25      -0.20145732       0.01373125       0.07616456      -0.17212586      -0.24385464       0.51165020
H       -2.96209827       2.60530241       6.43440422       26       0.06315758      -0.07175097      -0.16381470       0.16210105       0.09858995       0.31126335
H       -6.35720029       3.51669275       4.57538946       27       0.16449725       0.18568020       0.02440237      -0.60310280       1.40274191      -0.34498399
H       -3.82677276       2.00991138       3.18430536       28       0.08980579      -0.11710759      -0.00472146       0.23108695       0.02059659      -0.20068836
H       -5.17636508       2.03285237       7.19923472       29       0.10905399      -0.18779704       0.15105933      -0.36807674      -0.23564266       0.74253762
H       -0.79357721       4.53174514      -0.43569571       30      -0.12628095      -0.10201677      -0.01900716      -0.09977182       0.06218699       0.11299355
H        2.31575702       1.30675575      11.36317821       31       0.12163995       0.07458880      -0.08519285       0.08103588      -0.48911130      -0.09376714
C       -0.37163605       1.38708489       3.80590665       32       0.82677506       0.29513530       0.09765994       0.43049619      -0.84296918      -2.02712560
C        0.11847911      -1.18778283       6.49983782       33      -0.62840573      -0.18736993      -0.14628016      -0.37041712       0.27214754      -0.96541947
C       -0.97555879       2.96185327       5.57576503       34      -0.36449117      -1.07571568       0.20948648       0.37154981       0.17795631       0.59156364
C        1.35011566      -0.15700499       4.68315324       35      -0.02228055       0.95830849       0.13073038       0.73834670       1.50495410       0.40340039
C        6.36784106       0.86650848       1.33870127       36       0.30590146       0.88519277       1.28777018       1.97926462      -0.30296057       0.89317369
C       -5.53677832       1.29363402       9.24627692       37       0.27688737      -0.37684180       0.66636850      -0.66258019      -0.77056450       0.58605075
C       -3.39932674       1.69730076      10.02118764       38      -0.84111712      -0.44256697       0.59809767       0.37919676       0.55000311       0.65976125
C        4.71880456       2.50518193       0.70336303       39       0.38984802       0.88224410      -0.51305411      -0.59657735       1.44276595       0.49371868
C       -0.32683936       1.26219659       2.24609219       40      -0.63948324       0.50546158       0.23424473       0.77352560       0.79703587      -0.39455736
C       -0.05210458      -1.19852055       8.01058158       41       0.11582162      -0.65736983      -0.92748030       0.85170430       1.37446523      -1.02301681
C       -2.37909931       3.46525758       6.06278709       42      -0.05353436       0.08466852      -0.15003060      -0.40585881      -0.60533732      -1.67188239
C        2.83806339      -0.17358547       4.41939532       43       0.55230272       0.76816130      -0.43149736       1.06822360      -0.67908406       0.54369223
C        6.77902024       0.98017841       2.84378914       44      -1.12306878      -0.45028922       0.26639900      -0.51440918       0.02891072      -1.28143549
C       -5.86817688       1.36776538       7.79427940       45      -0.98979660      -0.05588190      -0.83441807       2.87885475       1.13960040      -0.55465603
C       -1.97699420       1.28319940       9.85895619       46       0.40696922      -0.18668263       0.33790964       1.72743535       0.51334131      -1.56754661
C        3.19008774       2.61285385       0.97606107       47       0.25747718       0.90120791      -0.18333124       1.07155514       1.22871220       1.82995915
O       -0.85758708       2.66103198       4.11713033       48       0.61684424      -0.37118585       1.25663974      -0.17585102       0.40347925       1.06925201
O        1.08909392      -0.23997553       6.12862842       49      -0.39618333      -0.37804351      -0.11483669       0.12259939      -0.37597454      -0.82796931
O       -1.16050471      -0.72093726       5.97406342       50      -0.34983833      -1.05740268      -0.27246693      -0.47366762      -0.41497952      -0.96765304
O        1.00795488       1.19208932       4.24044432       51      -0.03056984       0.15482621      -1.24559214      -1.03328121      -0.52625269       0.63128829
O       -3.10184428       4.20162623       0.97719081       52      -0.29226460       0.28802394      -0.94690576      -0.31202143       1.32850599      -0.04798026
O        4.30825697       0.33413989       9.75623659       53       0.02704100      -1.15722841      -0.33727305      -0.25940570       0.04012561       0.50475907
O       -4.24389658       0.74756656       9.49746229       54       0.41595555      -0.82784306       0.02625814       0.13963787       0.06730042      -0.42571446
O        5.02961365       1.21054933       1.07684129       55       0.87862954       0.61974550       1.29120833      -0.01922424      -0.82934415       0.05840435
