56
Lattice="10.7619164 0.0 0.0 -9.665296305262016 4.732958053065482 0.0 -0.5483100463354086 -2.3664790220718444 10.484177494289693" Properties=species:S:1:pos:R:3:spacegroup_kinds:I:1:momenta:R:3:forces:R:3 spacegroup="P 1" unit_cell=conventional occupancy="_JSON {\"0\": {\"H\": 1}, \"1\": {\"H\": 1}, \"2\": {\"H\": 1}, \"3\": {\"H\": 1}, \"4\": {\"H\": 1}, \"5\": {\"H\": 1}, \"6\": {\"H\": 1}, \"7\": {\"H\": 1}, \"8\": {\"H\": 1}, \"9\": {\"H\": 1}, \"10\": {\"H\": 1}, \"11\": {\"H\": 1}, \"12\": {\"H\": 1}, \"13\": {\"H\": 1}, \"14\": {\"H\": 1}, \"15\": {\"H\": 1}, \"16\": {\"H\": 1}, \"17\": {\"H\": 1}, \"18\": {\"H\": 1}, \"19\": {\"H\": 1}, \"20\": {\"H\": 1}, \"21\": {\"H\": 1}, \"22\": {\"H\": 1}, \"23\": {\"H\": 1}, \"24\": {\"H\": 1}, \"25\": {\"H\": 1}, \"26\": {\"H\": 1}, \"27\": {\"H\": 1}, \"28\": {\"H\": 1}, \"29\": {\"H\": 1}, \"30\": {\"H\": 1}, \"31\": {\"H\": 1}, \"32\": {\"C\": 1}, \"33\": {\"C\": 1}, \"34\": {\"C\": 1}, \"35\": {\"C\": 1}, \"36\": {\"C\": 1}, \"37\": {\"C\": 1}, \"38\": {\"C\": 1}, \"39\": {\"C\": 1}, \"40\": {\"C\": 1}, \"41\": {\"C\": 1}, \"42\": {\"C\": 1}, \"43\": {\"C\": 1}, \"44\": {\"C\": 1}, \"45\": {\"C\": 1}, \"46\": {\"C\": 1}, \"47\": {\"C\": 1}, \"48\": {\"O\": 1}, \"49\": {\"O\": 1}, \"50\": {\"O\": 1}, \"51\": {\"O\": 1}, \"52\": {\"O\": 1}, \"53\": {\"O\": 1}, \"54\": {\"O\": 1}, \"55\": {\"O\": 1}}" energy=-315.20623779296875 free_energy=-315.20623779296875 stress="0.0015259772771969438 -0.0007349609513767064 -5.734790988753957e-07 -0.0007349609513767064 -0.0014768283581361175 6.035594424247392e-08 -5.734790988753957e-07 6.035594424247392e-08 0.0016979785868898034" pbc="T T T"
H       -0.01248427       2.27696696       1.83153339        0       0.26354636       0.05758816       0.17128558       0.07122766       0.02707744       0.05251694
H        0.46428407      -0.32702137       8.65264411        1       0.35723632       0.30052336      -0.15421514      -0.05205677       0.05564475      -0.05251541
H        7.11696904      -0.62167877       5.76820574        2       0.13651140      -0.03657588      -0.02448058       0.06071810       0.02959766      -0.06332415
H        3.54843712       0.20514534       4.71597175        3       0.04495575       0.01373704       0.24194406      -0.04159870       0.05318677       0.06330261
H        5.94175252       0.08951207       3.41055536        4       0.10004105       0.00919574       0.06893732      -0.07122637      -0.02707708      -0.05251741
H        4.91667413       0.32702137       7.07362213        5       0.03762731       0.23702154      -0.03633186       0.05205763      -0.05563821       0.05251947
H       -1.73601084       0.62167878       9.95806050        6       0.04090260      -0.15000140      -0.41043770      -0.06071885      -0.02958671       0.06332392
H        2.38083113       2.16133369       0.52611700        7       0.07639930       0.13373956      -0.11953039       0.04159768      -0.05318604      -0.06330110
H       -1.38564785       1.18011340       2.11584331        8       0.34764813      -0.24942510       0.01968671       0.00912229       0.09641416       0.00989619
H       -8.45014457       2.81694541       8.36833418        9      -0.04487542       0.24826795       0.27191556       0.03391336       0.09078132      -0.00993995
H       -2.58250803       2.70418269       6.85836100       10       0.00836639       0.05472545      -0.13232917       0.03144356       0.09145372       0.01228195
H       -6.70499477       3.65935988       3.62581649       11      -0.35280026      -0.06406840       0.05024236       0.01202272       0.09588322      -0.01239163
H       -3.44700030       1.18636563       3.12624543       12       0.17759995       0.19181929      -0.04741865      -0.00912238      -0.09641361      -0.00989519
H       -6.59610993       1.91601265       7.35793206       13      -0.06659844      -0.18039638      -0.21144164      -0.03391615      -0.09078112       0.00994140
H       -1.70183007       2.02877537       8.86790524       14      -0.29590695       0.31510437      -0.07166042      -0.03144032      -0.09144855      -0.01229313
H       -7.79294969       3.44007720       1.61627226       15      -0.10166361      -0.21365327       0.15571300      -0.01202485      -0.09588430       0.01238997
H       -0.77544238       0.72057867       4.36236141       16      -0.29135246      -0.04383699      -0.13778795      -0.05580245      -0.06497604       0.06553216
H        1.56164860       2.67260202       6.12181608       17       0.04513471      -0.09416448      -0.19034861       0.02151168      -0.08285767      -0.06550536
H       -0.46393564       1.89516633       6.16016720       18      -0.02388752       0.06229365       0.02104621       0.04679068      -0.08891331       0.03981809
H        0.70181139      -0.86845994       4.32401029       19       0.02574107      -0.11427781      -0.05287528      -0.08095903      -0.05914098      -0.03975123
H        6.70471062       1.64590036       0.87972733       20      -0.14286290      -0.07079985      -0.14118650       0.05580541       0.06498130      -0.06553386
H       -5.84598670       2.06035604       9.60445016       21      -0.29753233       0.02254640      -0.04431235      -0.02151378       0.08285397       0.06550401
H        5.84489385      -1.89516633       9.56609904       22      -0.28312851       0.06560536      -0.15494221      -0.04679301       0.08891567      -0.03981595
H       -5.53445954       3.23493897       0.91807845       23      -0.02208037       0.11416853       0.04301970       0.08095694       0.05914027       0.03974698
H        0.25131050       0.51347389       1.94957474       24       0.15959789      -0.21361364       0.07505588      -0.00851088      -0.01871597      -0.03717773
H       -0.54820374      -1.79480395       8.53460275       25      -0.12868866      -0.15316038      -0.08588331      -0.00033021      -0.02044775       0.03709291
H       -2.80766320       2.46899490       5.11315433       26      -0.07305533       0.00146869      -0.17781296      -0.04083788      -0.01125233       0.00405110
H       -6.60619587       3.34910738       5.37102316       27       0.12888264       0.07074453      -0.23064715       0.03167384      -0.02802449      -0.00411319
H       -5.08395866       1.85300514       3.29251401       28       0.22099581       0.30740365       0.21601993       0.00851480       0.01871220       0.03717761
H       -4.83275446       1.79480396       7.19166349       29      -0.04673026      -0.18471461       0.19482948       0.00034787       0.02045747      -0.03709827
H       -0.92836486       4.63044218       0.12893441       30      -0.09883902       0.19431951       0.04569436       0.04083347       0.01124294      -0.00406408
H        2.32185777       1.38385068      10.35524308       31       0.15211596       0.04921952       0.12080102      -0.03167601       0.02802799       0.00411103
C       -0.12835063       1.44534837       3.84841655       32      -0.28778073       0.91754073       0.18270710      -0.01445562       0.09213144      -0.08206761
C        0.20260826      -1.12485611       6.63576095       33       0.00096406       0.97078231      -0.67128192       0.05361431       0.07627341       0.08205801
C       -0.77226604       2.84130358       5.69336968       34      -0.96473690       0.45234422      -0.54337998      -0.06051224       0.10293078       0.03487879
C        1.39483372      -0.15433229       4.79080781       35       0.83737779      -0.34833687      -0.35976593       0.09947369       0.06571265      -0.03489254
C        6.05761888       0.92113066       1.39367220       36       0.73780001       0.71679960       1.01054651       0.01444599      -0.09213783       0.08206850
C       -5.58356646       1.12485611       9.09050530       37       0.36600935      -0.57579551       1.35161317      -0.05360118      -0.07626307      -0.08206177
C       -3.51207206       1.89165448      10.03289656       38      -0.27702103       0.36712178       0.74445208       0.06052589      -0.10293423      -0.03488974
C        4.53443453       2.52081132       0.45128094       39      -0.47025582       0.22782501       0.51146167      -0.09947112      -0.06571975       0.03490289
C       -0.32593927       1.35886302       2.34265801       40      -0.11966996      -0.73251108       0.28611321      -0.02487624      -0.04884082       0.03836784
C        0.34202778      -1.28942579       8.14151949       41       0.57030904      -0.50578053       0.01064034       0.00090439      -0.05509248      -0.03820992
C       -2.26824862       3.05565688       5.86632716       42      -0.48098077       0.96238649       0.55365818       0.02524576      -0.06073731       0.01393117
C        2.83264719      -0.61974062       4.61785033       43      -0.04860277      -0.55844948       0.33742963      -0.04931971      -0.04330865      -0.01374465
C        6.25520752       1.00761601       2.89943074       44      -0.70747446      -0.11378709      -0.42767829       0.02487126       0.04884306      -0.03836641
C       -5.72298598       1.28942580       7.58474676       45       0.19434055       0.24831833       0.14297097      -0.00092344       0.05507571       0.03821293
C       -2.01608948       1.67730118       9.85993908       46       0.09740524      -0.72425149      -0.69205550      -0.02525474       0.06073190      -0.01389972
C        3.09662106       2.98621965       0.62423841       47      -0.12331172      -0.02208015       0.38636924       0.04932714       0.04330525       0.01374403
O       -0.42625656       2.75924355       4.28180099       48       1.20625674       0.48604619      -0.44497158       0.00567023      -0.06416655       0.01081652
O        1.04798334      -0.07585512       6.20237650       49       0.42305791      -1.01659881      -0.20166176      -0.03317348      -0.05508645      -0.01086347
O       -1.17294689      -0.80803189       6.28015861       50      -0.36133290       0.99731317      -0.30860065      -0.00324851      -0.06212884      -0.01994119
O        1.24638404       1.12493657       4.20401888       51      -0.92624698      -0.21254257      -0.34164539      -0.02462155      -0.05716497       0.01989252
O       -3.30977150       4.34019353       0.96028775       52       0.26500009      -0.83301049      -0.49473951      -0.00567127       0.06416604      -0.01082067
O        4.33297486       0.07585512       9.52388974       53      -0.48283211      -0.49689578       1.25894465       0.03316758       0.05508547       0.01086770
O       -4.20801131       0.80803190       9.44610763       54       0.43498781      -0.06064940      -0.51538975       0.00324836       0.06213036       0.01994627
O        4.68288421       1.24154246       1.03806987       55       0.06343698      -0.82659266      -1.04828579       0.02462467       0.05716883      -0.01989783
56
Lattice="10.7619164 0.0 0.0 -9.665296305262016 4.732958053065482 0.0 -0.5483100463354086 -2.3664790220718444 10.484177494289693" Properties=species:S:1:pos:R:3:spacegroup_kinds:I:1:momenta:R:3:forces:R:3 spacegroup="P 1" unit_cell=conventional occupancy="_JSON {\"0\": {\"H\": 1}, \"1\": {\"H\": 1}, \"2\": {\"H\": 1}, \"3\": {\"H\": 1}, \"4\": {\"H\": 1}, \"5\": {\"H\": 1}, \"6\": {\"H\": 1}, \"7\": {\"H\": 1}, \"8\": {\"H\": 1}, \"9\": {\"H\": 1}, \"10\": {\"H\": 1}, \"11\": {\"H\": 1}, \"12\": {\"H\": 1}, \"13\": {\"H\": 1}, \"14\": {\"H\": 1}, \"15\": {\"H\": 1}, \"16\": {\"H\": 1}, \"17\": {\"H\": 1}, \"18\": {\"H\": 1}, \"19\": {\"H\": 1}, \"20\": {\"H\": 1}, \"21\": {\"H\": 1}, \"22\": {\"H\": 1}, \"23\": {\"H\": 1}, \"24\": {\"H\": 1}, \"25\": {\"H\": 1}, \"26\": {\"H\": 1}, \"27\": {\"H\": 1}, \"28\": {\"H\": 1}, \"29\": {\"H\": 1}, \"30\": {\"H\": 1}, \"31\": {\"H\": 1}, \"32\": {\"C\": 1}, \"33\": {\"C\": 1}, \"34\": {\"C\": 1}, \"35\": {\"C\": 1}, \"36\": {\"C\": 1}, \"37\": {\"C\": 1}, \"38\": {\"C\": 1}, \"39\": {\"C\": 1}, \"40\": {\"C\": 1}, \"41\": {\"C\": 1}, \"42\": {\"C\": 1}, \"43\": {\"C\": 1}, \"44\": {\"C\": 1}, \"45\": {\"C\": 1}, \"46\": {\"C\": 1}, \"47\": {\"C\": 1}, \"48\": {\"O\": 1}, \"49\": {\"O\": 1}, \"50\": {\"O\": 1}, \"51\": {\"O\": 1}, \"52\": {\"O\": 1}, \"53\": {\"O\": 1}, \"54\": {\"O\": 1}, \"55\": {\"O\": 1}}" energy=-314.163330078125 free_energy=-314.163330078125 stress="0.0017964786384254694 -0.006295061204582453 0.004064939916133881 -0.006295061204582453 0.0028975424356758595 0.006800160277634859 0.004064939916133881 0.006800160277634859 -0.004473614040762186" pbc="T T T"
H        0.12223866       2.21335579       1.84744823        0      -0.06388212      -0.04107994      -0.23331093      -0.34890544      -0.46717715       0.26391619
H        0.31702077      -0.21474889       8.50409127        1      -0.41596664       0.28241798       0.13417998       0.19316757      -0.82258952      -0.04442067
H        7.16689583      -0.52337019       5.79422137        2      -0.01099341       0.09115198       0.18553089      -0.25331569       0.53085160      -0.08150353
H        3.56769346       0.19128015       4.81695805        3       0.00635049       0.03106400      -0.05661318      -0.45246887      -0.59983313       0.03513628
H        5.89857394       0.12906190       3.45590353        4      -0.13662974       0.06346627       0.07412529      -0.11012707      -0.04154643      -0.10463296
H        5.01440547       0.32414388       7.14335934        5       0.11996957      -0.01313392       0.16304608      -0.17231221      -0.44180554      -0.12289545
H       -1.69404179       0.62953430       9.70230149        6      -0.06773577       0.00953613      -0.07983933      -0.29939815      -0.31745908       0.05526352
H        2.37945906       2.25462941       0.31380996        7      -0.10899701       0.12801556      -0.23887829      -0.36571050      -0.41984653      -0.02494949
H       -1.28062217       1.09681357       2.00394185        8       0.10394091       0.17626288      -0.14567617      -0.56132549      -0.12197615      -0.18949588
H       -8.36548926       3.00985762       8.44664931        9       0.01874416       0.07750796      -0.14054394       0.39231908      -0.31946707      -0.01170054
H       -2.54664931       2.78893573       6.82205308       10       0.03048611       0.25775610      -0.04488791      -0.41237265      -0.20837802       1.19028521
H       -6.74143406       3.80633209       3.57290629       11       0.32050247       0.15943869       0.02898732       0.31104156       0.03236909       0.37734878
H       -3.41360541       1.09458059       3.05616297       12       0.34318367      -0.23802467       0.07743267      -0.50854152       0.08234676       0.33155924
H       -6.59466937       1.88031610       7.31880476       13       0.01536690       0.03548300       0.08656130      -0.08189683      -0.12137144       0.20796479
H       -1.92963186       2.16013646       8.81427834       14       0.12531081      -0.02323669      -0.06972958       0.40313548      -0.12264331      -0.32056484
H       -7.86690877       3.29972354       1.71696134       15      -0.08477308      -0.03159832       0.12293896      -0.01433854      -0.41004664      -0.77137810
H       -0.90235488       0.77646755       4.33988636       16      -0.08685997      -0.05814797       0.28342562       0.40912509       0.11714683       0.19912359
H        1.57326848       2.69585852       6.02312945       17       0.00715139      -0.12380906      -0.16254829      -0.29899192      -0.23123074       0.25480562
H       -0.61632287       1.91476306       6.12879313       18      -0.08876034       0.01924320      -0.05101226       0.36619484      -0.32495439       0.18464836
H        0.76835884      -0.91704687       4.28843426       19      -0.15605134       0.01894771       0.06988655      -0.03237616       0.22900409       0.08527847
H        6.70609331       1.62092024       0.91686454       20       0.01929257      -0.19191450       0.26163555       0.76997519       0.63578278      -0.47934973
H       -5.82009077       2.01052704       9.75507013       21       0.30326565       0.03656602       0.14022330      -0.00922832      -0.03740968      -0.50983751
H        5.81093412      -1.87039269       9.61285224       22       0.20657575       0.20659840      -0.02039170       0.37428084      -0.52969062       0.33497894
H       -5.59543447       3.24736135       1.04015513       23      -0.04224139      -0.11354993       0.21265893       0.13948375      -0.29077309      -0.10894261
H        0.42784598       0.48710597       2.10176741       24       0.30049774      -0.13610968      -0.00468399      -0.59484416       0.09816339      -0.19185090
H       -0.53518870      -1.77813118       8.52127419       25       0.00655552       0.08690832       0.10595504       0.65831655      -0.06782705      -0.13440406
H       -2.96285665       2.59157637       5.13270570       26      -0.25300693       0.03340889       0.06572265       0.52107215       0.35914618       0.31286672
H       -6.55716740       3.24215835       5.23786856       27      -0.16752554      -0.02805277      -0.10766373       0.03741241      -0.88641059       0.79594320
H       -5.03685284       1.93128231       3.36334313       28      -0.15021138       0.12582538      -0.10191889       0.62859154      -0.83863413      -0.54655504
H       -4.85344604       1.77016488       7.27072603       29      -0.06649180       0.16884076       0.01181286       1.25072944       0.88673389      -0.39224660
H       -0.86175593       4.56432672       0.03964652       30       0.17846398      -0.19144287      -0.07943172      -0.39176166      -0.36752480      -0.55813450
H        2.38301372       1.54051150      10.51636399       31      -0.19060839       0.01911288       0.25222946       0.14690970      -0.16933909       0.11266302
C       -0.17581896       1.46226533       3.84974165       32      -0.18515654      -0.57459553      -0.22058214       0.27883214      -0.44003591       0.08531511
C        0.22192599      -1.12504879       6.58997346       33      -0.07512326      -0.46550104       0.08488182      -0.55275619      -0.80494630       0.23250318
C       -0.84336858       2.87265025       5.66245298       34       0.04319846       0.29158540      -0.23378170       1.13018012       0.50398982      -0.24388669
C        1.43229076      -0.18392811       4.79404745       35      -0.39846568      -0.16641829      -0.07506727      -1.39263391       0.15176934      -0.49471110
C        6.06713488       0.93900034       1.43224267       36      -0.39497135      -0.32073273      -0.80955189      -1.35843933      -1.50483561      -0.67591536
C       -5.58329451       1.10380716       9.15771829       37      -0.36193209      -0.01752121       0.07000774      -0.01275830       0.62094921      -0.17375574
C       -3.52181740       1.89477508      10.09402550       38       0.16177585      -0.52863282       0.28467015       0.13258204       0.16549529      -2.07575488
C        4.51640583       2.52102928       0.51005713       39       0.36138341      -0.43527619       0.58505053       0.14679074       0.12096068       0.07939804
C       -0.28405293       1.30051714       2.35611376       40       0.19195171      -0.55821618       0.03644858       1.44869816       0.72397113      -0.52214986
C        0.37449210      -1.27541848       8.11748207       41       0.14753515       0.49373597      -0.46888079      -1.73077846       1.54831600      -0.36516932
C       -2.30636824       3.14844780       5.85186588       42      -0.25949157       1.26103884      -0.54787120      -0.30482644      -0.37170404      -1.63763285
C        2.84200269      -0.65064888       4.64737901       43       0.56034524      -0.10141637      -0.32885456       0.85266906       1.99937153      -1.91112089
C        6.24443653       1.02088159       2.92126917       44       0.40080587      -0.06552307       0.31202167       0.30224124       0.54350269       0.34550443
C       -5.72072981       1.29321542       7.63361805       45      -0.11247031      -0.13664565       1.05760888      -1.14459944      -0.53769636       0.96596116
C       -2.05012739       1.65516313       9.77267023       46      -0.47453626       0.69520805      -0.54057503       0.62453508       1.48064983       1.00712299
C        3.08351631       3.00246312       0.64822751       47      -0.01605080       0.11556183       0.01381017       0.20967364       0.51372159       0.80871677
O       -0.35411232       2.78763684       4.26978768       48       0.22350739       0.25056279       0.25663335      -1.10039949       0.01685628       0.20638137
O        1.06167984      -0.11984225       6.16496940       49      -0.16821861      -0.55392457      -0.45958730       0.11152011       0.85498542       0.49101394
O       -1.21357943      -0.78977938       6.25156088       50      -0.33543367      -0.44277469      -0.25066838       0.73390609      -0.39541700       0.41342315
O        1.20697420       1.13024276       4.19342496       51       0.17004610       0.12777109       0.14454283       0.59316254      -1.04898477       0.70126760
O       -3.31489246       4.29054000       0.93958224       52      -0.41183548      -0.17658529       0.40053858      -0.10513994       0.93135345       2.17609072
O        4.33821577       0.06296654       9.62059752       53       0.35992281       0.45633124       0.21462755       0.43338212       0.52332306      -1.13898277
O       -4.17202258       0.83010247       9.41381798       54       0.02043458       0.24051379      -0.02777848      -0.78840131      -0.43915910       0.27765495
O        4.70668947       1.20000077       0.96656717       55       0.53785591      -0.22599714      -0.23686574      -0.20128001       0.02995328       1.29980731
56
Lattice="10.7619164 0.0 0.0 -9.665296305262016 4.732958053065482 0.0 -0.5483100463354086 -2.3664790220718444 10.484177494289693" Properties=species:S:1:pos:R:3:spacegroup_kinds:I:1:momenta:R:3:forces:R:3 spacegroup="P 1" unit_cell=conventional occupancy="_JSON {\"0\": {\"H\": 1}, \"1\": {\"H\": 1}, \"2\": {\"H\": 1}, \"3\": {\"H\": 1}, \"4\": {\"H\": 1}, \"5\": {\"H\": 1}, \"6\": {\"H\": 1}, \"7\": {\"H\": 1}, \"8\": {\"H\": 1}, \"9\": {\"H\": 1}, \"10\": {\"H\": 1}, \"11\": {\"H\": 1}, \"12\": {\"H\": 1}, \"13\": {\"H\": 1}, \"14\": {\"H\": 1}, \"15\": {\"H\": 1}, \"16\": {\"H\": 1}, \"17\": {\"H\": 1}, \"18\": {\"H\": 1}, \"19\": {\"H\": 1}, \"20\": {\"H\": 1}, \"21\": {\"H\": 1}, \"22\": {\"H\": 1}, \"23\": {\"H\": 1}, \"24\": {\"H\": 1}, \"25\": {\"H\": 1}, \"26\": {\"H\": 1}, \"27\": {\"H\": 1}, \"28\": {\"H\": 1}, \"29\": {\"H\": 1}, \"30\": {\"H\": 1}, \"31\": {\"H\": 1}, \"32\": {\"C\": 1}, \"33\": {\"C\": 1}, \"34\": {\"C\": 1}, \"35\": {\"C\": 1}, \"36\": {\"C\": 1}, \"37\": {\"C\": 1}, \"38\": {\"C\": 1}, \"39\": {\"C\": 1}, \"40\": {\"C\": 1}, \"41\": {\"C\": 1}, \"42\": {\"C\": 1}, \"43\": {\"C\": 1}, \"44\": {\"C\": 1}, \"45\": {\"C\": 1}, \"46\": {\"C\": 1}, \"47\": {\"C\": 1}, \"48\": {\"O\": 1}, \"49\": {\"O\": 1}, \"50\": {\"O\": 1}, \"51\": {\"O\": 1}, \"52\": {\"O\": 1}, \"53\": {\"O\": 1}, \"54\": {\"O\": 1}, \"55\": {\"O\": 1}}" energy=-313.85382080078125 free_energy=-313.85382080078125 stress="0.013761443085968494 -0.004879383370280266 -0.005674333777278662 -0.004879383370280266 0.006163888610899448 0.005476075224578381 -0.005674333777278662 0.005476075224578381 -0.0018127725925296545" pbc="T T T"
H        0.15152032       2.21865826       1.86996613        0       0.18670823      -0.17536413       0.06887289      -0.25462693      -0.83075029       0.05804664
H        0.10920531      -0.19334275       8.62244502        1      -0.00897911       0.26460781      -0.03107005       0.20135796      -1.45994174      -1.01799369
H        7.15516431      -0.39883627       5.76710608        2       0.22383247       0.15937140      -0.34067699       0.18644531       0.19728169      -0.26340443
H        3.55287381       0.14212041       5.10648272        3      -0.16824464      -0.25377480       0.22539367      -0.53552783      -0.32389709      -0.69895875
H        5.71904802       0.28007956       3.48878622        4      -0.14175137       0.06957600       0.07981291      -0.42628944      -0.45673168       0.12704530
H        5.07217445       0.33732696       7.23278702        5      -0.02221060       0.07819950       0.03358468       0.14585079      -0.33883455      -0.34743732
H       -1.86337461       0.61454907       9.70908655        6       0.00210002      -0.06951321       0.02682886       0.35397330       0.27212662       0.03441992
H        2.40409166       2.23500130       0.27412497        7      -0.05904480      -0.08227805      -0.03197367       0.20295389       0.43274066      -0.32657158
H       -1.27779538       1.10993529       2.00836783        8      -0.09536131      -0.13044334       0.02708152      -0.83863831       0.04003347      -0.43664622
H       -8.33962587       3.21420926       8.35225625        9       0.17273585       0.29406278      -0.08361809       0.23368129       0.22765602      -0.09217969
H       -2.54133523       3.01261347       6.85842832       10       0.10491060       0.07367790       0.12018096      -0.11240915      -0.33224446       0.81576478
H       -6.39093373       3.84895163       3.60576956       11       0.14443677       0.00657615      -0.00789931      -0.26307520       0.31059653      -0.29987478
H       -3.37778184       0.94136176       3.24468012       12       0.01522193      -0.07500928       0.19342047      -1.33400655      -0.10755603      -0.76893449
H       -6.68609545       1.78694177       7.51153397       13      -0.08667957      -0.27258637      -0.01170169      -0.20096068      -0.13164628      -0.15521769
H       -1.76453239       2.05976724       8.70170598       14       0.02189847      -0.10309626       0.09738867      -0.31269553       0.19350250       0.31044000
H       -7.95446003       3.02340529       1.79564976       15      -0.04973560      -0.11226860       0.02076903       0.41189471       0.38057691      -1.18562245
H       -0.80018664       0.77039126       4.49092955       16       0.00831354      -0.06072616      -0.00660579       0.00096925       0.17438722      -0.99411619
H        1.44500773       2.50713074       6.17382267       17       0.01225017      -0.28997438      -0.01209826       0.24866444       1.14403629       0.13491437
H       -0.56090753       1.92546783       6.04306254       18       0.00912426       0.02953044      -0.02228962      -0.35387120      -0.16754967       0.13082817
H        0.67939903      -0.89355050       4.27079629       19       0.07644924      -0.05095171      -0.04691377       0.30057612      -0.10529569      -0.07734923
H        6.74714452       1.49845923       0.85340920       20      -0.11245947      -0.08927553      -0.22056972       0.51639640       1.18711102      -0.49470210
H       -5.80988199       2.10952447       9.71365882       21      -0.20491566       0.06817229      -0.10894771       0.02467477      -0.34780383      -0.22419605
H        5.87596101      -1.83571084       9.70363716       22      -0.16165020       0.07076753       0.03590447      -0.15178585      -0.88952816      -0.00086305
H       -5.50015880       3.11440201       1.13784151       23       0.11933087       0.03126369      -0.00442172      -0.11865070       0.35620713      -0.32354972
H        0.36855193       0.33657781       1.99417355       24      -0.04607102      -0.23447376      -0.15432089      -1.04203987       1.71019101       0.43702102
H       -0.32413892      -2.00709539       8.53026265       25       0.20339014      -0.17844318      -0.18322128       0.05246295       0.67888945      -0.27905259
H       -3.08714247       2.74677624       5.19721875       26      -0.01915433       0.07455458      -0.09249835       0.58998239       0.03474095       0.12558165
H       -6.69673470       3.25872591       5.21696368       27      -0.09696493      -0.06688961      -0.04755606       0.17544284      -1.07494068       0.50442880
H       -4.83143356       2.04721356       3.16449861       28       0.33766961       0.12941248       0.00705005       0.39477739      -1.34767079      -0.01897149
H       -4.93754007       1.99042854       7.37634369       29       0.05869087       0.23203807       0.01089279      -0.29873931      -0.47476703      -0.05642274
H       -0.81005378       4.51876375       0.00822848       30      -0.20155824       0.23295161      -0.03457242      -0.26692271      -0.02007110      -0.48483118
H        2.48120421       1.62674289      10.66760471       31       0.30393405      -0.01816120       0.05312278      -0.25146663      -0.60053444       0.38425720
C       -0.17497678       1.41202888       3.81608589       32       0.11041240      -0.26316013      -0.10980167       0.95672965       0.41550258       1.33579862
C        0.16861397      -1.18805865       6.60335741       33      -0.76776862       0.02200122       0.67404021      -0.22194277       0.09041018      -0.69300288
C       -0.81165544       2.89924225       5.59186425       34      -0.05282387       0.32732983      -0.63230723      -1.19237506      -0.34071600       0.60169983
C        1.38527140      -0.18167026       4.74198784       35       0.10269926       0.21879243      -0.68694690       0.81693989      -0.55123484      -0.59415650
C        6.06620573       0.86818197       1.37965232       36       0.53230839      -0.54626147       0.08532746      -0.00821128      -0.53995967       1.85033035
C       -5.59710015       1.15461054       9.17270548       37       0.05871139       1.06856429       0.55336485       0.70454264       0.84736669       1.79725409
C       -3.48648166       1.86752581      10.06803997       38       0.30032611       0.37939407      -0.58623044      -0.95997989       1.52577710      -0.53066128