56
Lattice="10.7619164 0.0 0.0 -9.665296305262016 4.732958053065482 0.0 -0.5483100463354086 -2.3664790220718444 10.484177494289693" Properties=species:S:1:pos:R:3:spacegroup_kinds:I:1:forces:R:3 spacegroup="P 1" unit_cell=conventional occupancy="_JSON {\"0\": {\"H\": 1}, \"1\": {\"H\": 1}, \"2\": {\"H\": 1}, \"3\": {\"H\": 1}, \"4\": {\"H\": 1}, \"5\": {\"H\": 1}, \"6\": {\"H\": 1}, \"7\": {\"H\": 1}, \"8\": {\"H\": 1}, \"9\": {\"H\": 1}, \"10\": {\"H\": 1}, \"11\": {\"H\": 1}, \"12\": {\"H\": 1}, \"13\": {\"H\": 1}, \"14\": {\"H\": 1}, \"15\": {\"H\": 1}, \"16\": {\"H\": 1}, \"17\": {\"H\": 1}, \"18\": {\"H\": 1}, \"19\": {\"H\": 1}, \"20\": {\"H\": 1}, \"21\": {\"H\": 1}, \"22\": {\"H\": 1}, \"23\": {\"H\": 1}, \"24\": {\"H\": 1}, \"25\": {\"H\": 1}, \"26\": {\"H\": 1}, \"27\": {\"H\": 1}, \"28\": {\"H\": 1}, \"29\": {\"H\": 1}, \"30\": {\"H\": 1}, \"31\": {\"H\": 1}, \"32\": {\"C\": 1}, \"33\": {\"C\": 1}, \"34\": {\"C\": 1}, \"35\": {\"C\": 1}, \"36\": {\"C\": 1}, \"37\": {\"C\": 1}, \"38\": {\"C\": 1}, \"39\": {\"C\": 1}, \"40\": {\"C\": 1}, \"41\": {\"C\": 1}, \"42\": {\"C\": 1}, \"43\": {\"C\": 1}, \"44\": {\"C\": 1}, \"45\": {\"C\": 1}, \"46\": {\"C\": 1}, \"47\": {\"C\": 1}, \"48\": {\"O\": 1}, \"49\": {\"O\": 1}, \"50\": {\"O\": 1}, \"51\": {\"O\": 1}, \"52\": {\"O\": 1}, \"53\": {\"O\": 1}, \"54\": {\"O\": 1}, \"55\": {\"O\": 1}}" energy=-315.20623779296875 free_energy=-315.20623779296875 stress="0.0015259772771969438 -0.0007349609513767064 -5.734790988753957e-07 -0.0007349609513767064 -0.0014768283581361175 6.035594424247392e-08 -5.734790988753957e-07 6.035594424247392e-08 0.0016979785868898034" pbc="T T T"
H       -0.01248427       2.27696696       1.83153339        0       0.07122766       0.02707744       0.05251694
H        0.46428407      -0.32702137       8.65264411        1      -0.05205677       0.05564475      -0.05251541
H        7.11696904      -0.62167877       5.76820574        2       0.06071810       0.02959766      -0.06332415
H        3.54843712       0.20514534       4.71597175        3      -0.04159870       0.05318677       0.06330261
H        5.94175252       0.08951207       3.41055536        4      -0.07122637      -0.02707708      -0.05251741
H        4.91667413       0.32702137       7.07362213        5       0.05205763      -0.05563821       0.05251947
H       -1.73601084       0.62167878       9.95806050        6      -0.06071885      -0.02958671       0.06332392
H        2.38083113       2.16133369       0.52611700        7       0.04159768      -0.05318604      -0.06330110
H       -1.38564785       1.18011340       2.11584331        8       0.00912229       0.09641416       0.00989619
H       -8.45014457       2.81694541       8.36833418        9       0.03391336       0.09078132      -0.00993995
H       -2.58250803       2.70418269       6.85836100       10       0.03144356       0.09145372       0.01228195
H       -6.70499477       3.65935988       3.62581649       11       0.01202272       0.09588322      -0.01239163
H       -3.44700030       1.18636563       3.12624543       12      -0.00912238      -0.09641361      -0.00989519
H       -6.59610993       1.91601265       7.35793206       13      -0.03391615      -0.09078112       0.00994140
H       -1.70183007       2.02877537       8.86790524       14      -0.03144032      -0.09144855      -0.01229313
H       -7.79294969       3.44007720       1.61627226       15      -0.01202485      -0.09588430       0.01238997
H       -0.77544238       0.72057867       4.36236141       16      -0.05580245      -0.06497604       0.06553216
H        1.56164860       2.67260202       6.12181608       17       0.02151168      -0.08285767      -0.06550536
H       -0.46393564       1.89516633       6.16016720       18       0.04679068      -0.08891331       0.03981809
H        0.70181139      -0.86845994       4.32401029       19      -0.08095903      -0.05914098      -0.03975123
H        6.70471062       1.64590036       0.87972733       20       0.05580541       0.06498130      -0.06553386
H       -5.84598670       2.06035604       9.60445016       21      -0.02151378       0.08285397       0.06550401
H        5.84489385      -1.89516633       9.56609904       22      -0.04679301       0.08891567      -0.03981595
H       -5.53445954       3.23493897       0.91807845       23       0.08095694       0.05914027       0.03974698
H        0.25131050       0.51347389       1.94957474       24      -0.00851088      -0.01871597      -0.03717773
H       -0.54820374      -1.79480395       8.53460275       25      -0.00033021      -0.02044775       0.03709291
H       -2.80766320       2.46899490       5.11315433       26      -0.04083788      -0.01125233       0.00405110
H       -6.60619587       3.34910738       5.37102316       27       0.03167384      -0.02802449      -0.00411319
H       -5.08395866       1.85300514       3.29251401       28       0.00851480       0.01871220       0.03717761
H       -4.83275446       1.79480396       7.19166349       29       0.00034787       0.02045747      -0.03709827
H       -0.92836486       4.63044218       0.12893441       30       0.04083347       0.01124294      -0.00406408
H        2.32185777       1.38385068      10.35524308       31      -0.03167601       0.02802799       0.00411103
C       -0.12835063       1.44534837       3.84841655       32      -0.01445562       0.09213144      -0.08206761
C        0.20260826      -1.12485611       6.63576095       33       0.05361431       0.07627341       0.08205801
C       -0.77226604       2.84130358       5.69336968       34      -0.06051224       0.10293078       0.03487879
C        1.39483372      -0.15433229       4.79080781       35       0.09947369       0.06571265      -0.03489254
C        6.05761888       0.92113066       1.39367220       36       0.01444599      -0.09213783       0.08206850
C       -5.58356646       1.12485611       9.09050530       37      -0.05360118      -0.07626307      -0.08206177
C       -3.51207206       1.89165448      10.03289656       38       0.06052589      -0.10293423      -0.03488974
C        4.53443453       2.52081132       0.45128094       39      -0.09947112      -0.06571975       0.03490289
C       -0.32593927       1.35886302       2.34265801       40      -0.02487624      -0.04884082       0.03836784
C        0.34202778      -1.28942579       8.14151949       41       0.00090439      -0.05509248      -0.03820992
C       -2.26824862       3.05565688       5.86632716       42       0.02524576      -0.06073731       0.01393117
C        2.83264719      -0.61974062       4.61785033       43      -0.04931971      -0.04330865      -0.01374465
C        6.25520752       1.00761601       2.89943074       44       0.02487126       0.04884306      -0.03836641
C       -5.72298598       1.28942580       7.58474676       45      -0.00092344       0.05507571       0.03821293
C       -2.01608948       1.67730118       9.85993908       46      -0.02525474       0.06073190      -0.01389972
C        3.09662106       2.98621965       0.62423841       47       0.04932714       0.04330525       0.01374403
O       -0.42625656       2.75924355       4.28180099       48       0.00567023      -0.06416655       0.01081652
O        1.04798334      -0.07585512       6.20237650       49      -0.03317348      -0.05508645      -0.01086347
O       -1.17294689      -0.80803189       6.28015861       50      -0.00324851      -0.06212884      -0.01994119
O        1.24638404       1.12493657       4.20401888       51      -0.02462155      -0.05716497       0.01989252
O       -3.30977150       4.34019353       0.96028775       52      -0.00567127       0.06416604      -0.01082067
O        4.33297486       0.07585512       9.52388974       53       0.03316758       0.05508547       0.01086770
O       -4.20801131       0.80803190       9.44610763       54       0.00324836       0.06213036       0.01994627
O        4.68288421       1.24154246       1.03806987       55       0.02462467       0.05716883      -0.01989783
