32
Lattice="6.17176593 0.0 0.0 0.0 8.01859859 0.0 0.0 0.0 13.03281824" Properties=species:S:1:pos:R:3:spacegroup_kinds:I:1:forces:R:3 spacegroup="P 1" unit_cell=conventional occupancy="_JSON {\"0\": {\"Li\": 1}, \"1\": {\"Li\": 1}, \"2\": {\"Li\": 1}, \"3\": {\"Li\": 1}, \"4\": {\"Li\": 1}, \"5\": {\"Li\": 1}, \"6\": {\"Li\": 1}, \"7\": {\"Li\": 1}, \"8\": {\"Li\": 1}, \"9\": {\"Li\": 1}, \"10\": {\"Li\": 1}, \"11\": {\"Li\": 1}, \"12\": {\"P\": 1}, \"13\": {\"P\": 1}, \"14\": {\"P\": 1}, \"15\": {\"P\": 1}, \"16\": {\"S\": 1}, \"17\": {\"S\": 1}, \"18\": {\"S\": 1}, \"19\": {\"S\": 1}, \"20\": {\"S\": 1}, \"21\": {\"S\": 1}, \"22\": {\"S\": 1}, \"23\": {\"S\": 1}, \"24\": {\"S\": 1}, \"25\": {\"S\": 1}, \"26\": {\"S\": 1}, \"27\": {\"S\": 1}, \"28\": {\"S\": 1}, \"29\": {\"S\": 1}, \"30\": {\"S\": 1}, \"31\": {\"S\": 1}}" energy=-140.3463134765625 free_energy=-140.3463134765625 stress="-0.002888654824346304 -6.241744454626996e-09 -2.0740980488653804e-08 -6.241744454626996e-09 -0.004072278738021851 2.5875868558955517e-08 -2.0740980488653804e-08 2.5875868558955517e-08 -0.0025936199817806482" pbc="T T T"
Li       2.40166821       0.26892251       4.33377963        0      -0.01548921       0.00236007       0.00063317
Li       3.77009791       7.74967601       8.69903843        1       0.01548926      -0.00236096      -0.00063165
Li       5.48755104       7.74967606       2.18262942        2      -0.01549297      -0.00236085      -0.00063381
Li       0.68421475       0.26892249      10.85018868        3       0.01549075       0.00236178       0.00063227
Li       3.77009787       4.27822189       8.69903839        4       0.01548748       0.00235727      -0.00063399
Li       2.40166815       3.74037679       4.33377961        5      -0.01548941      -0.00235960       0.00063346
Li       0.68421482       3.74037678      10.85018873        6       0.01549124      -0.00236058       0.00063187
Li       5.48755103       4.27822190       2.18262940        7      -0.01549221       0.00236128      -0.00063004
Li       3.08588290      -0.00000010       0.00000009        8       0.00000013       0.00000086      -0.00000075
Li       0.00000001      -0.00000002       6.51640920        9       0.00000052       0.00000151      -0.00000060
Li       3.08588295       4.00929943       0.00000012       10      -0.00000112      -0.00000144       0.00000196
Li      -0.00000000       4.00929931       6.51640919       11       0.00000052      -0.00000049      -0.00000191
P        0.93932956       2.00464931       1.16793462       12      -0.00066661       0.00001080       0.03303437
P        5.23243628       6.01394882      11.86488428       13       0.00066566       0.00000951      -0.03305757
P        4.02521222       6.01394897       5.34847529       14      -0.00065014      -0.00000117      -0.03306188
P        2.14655387       2.00464964       7.68434323       15       0.00065392      -0.00000027       0.03305439
S        5.07612365       2.00464969       1.30682516       16       0.00279973       0.00000116       0.01274902
S        1.09564223       6.01394891      11.72599302       17      -0.00280005      -0.00000111      -0.01274621
S        1.99024105       6.01394897       5.20958387       18       0.00279301       0.00000017      -0.01274424
S        4.18152498       2.00464962       7.82323415       19      -0.00279038       0.00000062       0.01274703
S        1.68772169       2.00464972      12.25093568       20       0.03397134      -0.00000010       0.02524865
S        4.48404419       6.01394890       0.78188247       21      -0.03397384      -0.00000126      -0.02523481
S        4.77360469       6.01394893       7.29829155       22       0.03397214       0.00000117      -0.02523800
S        1.39816136       2.00464968       5.73452696       23      -0.03397413       0.00000014       0.02524081
S        1.68016694       0.28147989       2.00960379       24       0.02273558      -0.00259721      -0.01691761
S        4.49159914       7.73711913      11.02321416       25      -0.02272952       0.00258471       0.01692424
S        4.76604991       7.73711920       4.50680512       26       0.02272855       0.00258127       0.01692875
S        1.40571577       0.28147958       8.52601303       27      -0.02272864      -0.00258403      -0.01692874
S        4.49159903       4.29077892      11.02321427       28      -0.02273343      -0.00259204       0.01692369
S        1.68016708       3.72781963       2.00960393       29       0.02273090       0.00258427      -0.01692349
S        1.40571583       3.72781965       8.52601312       30      -0.02272815       0.00258598      -0.01692796
S        4.76604988       4.29077864       4.50680502       31       0.02272900      -0.00258125       0.01692958
