13
Lattice="7.26870274 0.0 0.0 3.634351370000001 6.294881225397555 0.0 3.634351370000001 2.0982937417991856 5.934870934989993" Properties=species:S:1:pos:R:3:spacegroup_kinds:I:1:momenta:R:3:forces:R:3 spacegroup="P 1" unit_cell=conventional occupancy="_JSON {\"0\": {\"Li\": 1}, \"1\": {\"Li\": 1}, \"2\": {\"Li\": 1}, \"3\": {\"Li\": 1}, \"4\": {\"Li\": 1}, \"5\": {\"Li\": 1}, \"6\": {\"P\": 1}, \"7\": {\"S\": 1}, \"8\": {\"S\": 1}, \"9\": {\"S\": 1}, \"10\": {\"S\": 1}, \"11\": {\"S\": 1}, \"12\": {\"Cl\": 1}}" energy=-53.325721740722656 free_energy=-53.325721740722656 stress="-0.00073256652103737 0.0018624997464939952 -0.0011671746615320444 0.0018624997464939952 0.0011028454173356295 -0.0012234941823408008 -0.0011671746615320444 -0.0012234941823408008 -0.00366889382712543" pbc="T T T"
Li       9.19572748       7.22839925       3.18942445        0      -0.39263268      -0.17262279       0.22055066      -0.00271305       0.13300654       0.02820915
Li      12.54919185       5.42641741       5.79287747        1       0.07097194       0.34309952      -0.02072106       0.12741506      -0.01388200       0.05572397
Li       9.27127599       5.24769920       5.82908067        2       0.08859457      -0.13400724      -0.00183927       0.15554483       0.02366050      -0.13465968
Li      12.54678412       7.17223017       3.03810886        3      -0.06192762      -0.10082548      -0.25071541      -0.06187716       0.19841041      -0.09299282
Li      10.91113376       4.38399888       3.16280648        4       0.12195861      -0.26005978       0.08935620      -0.00653676      -0.10006198      -0.03520018
Li      10.84536987       8.17852836       5.81557188        5      -0.19447355       0.12093665      -0.05793075      -0.03098327       0.11246338      -0.05622626
P        7.25968506       4.19090881       2.97029581        6      -0.07811135      -0.30074205       0.32552729       0.06452873      -0.04775750      -0.23674034
S        7.31687875       6.13744011       2.27530111        7       0.12932092      -0.01579883       0.47024464      -0.32570183      -0.17097610       0.00406570
S        8.95652562       3.26511667       2.28857757        8       0.59167244      -0.48177850      -0.37163946       0.03913365      -0.27342728      -0.06756379
S        5.58561374       3.17932747       2.28759622        9       0.20918434      -0.01772948       0.57298816       0.13009155       0.30804417       0.11702342
S        7.27226332       4.19890411       5.01005283       10      -0.25973030       0.10698837      -0.58195841      -0.20292667       0.00875119       0.26470113
S       10.88341234       6.32562540       4.43364751       11      -0.13378433       0.64970953      -0.12966869       0.05841966      -0.20831424       0.19245160
Cl      -0.00605148       0.00881384      -0.00269159       12      -0.09104301       0.26283009      -0.26419388       0.05560527       0.03008294      -0.03879191
