13
Lattice="7.26870274 0.0 0.0 3.634351370000001 6.294881225397555 0.0 3.634351370000001 2.0982937417991856 5.934870934989993" Properties=species:S:1:pos:R:3:spacegroup_kinds:I:1:momenta:R:3:forces:R:3 spacegroup="P 1" unit_cell=conventional occupancy="_JSON {\"0\": {\"Li\": 1}, \"1\": {\"Li\": 1}, \"2\": {\"Li\": 1}, \"3\": {\"Li\": 1}, \"4\": {\"Li\": 1}, \"5\": {\"Li\": 1}, \"6\": {\"P\": 1}, \"7\": {\"S\": 1}, \"8\": {\"S\": 1}, \"9\": {\"S\": 1}, \"10\": {\"S\": 1}, \"11\": {\"S\": 1}, \"12\": {\"Cl\": 1}}" energy=-53.3634147644043 free_energy=-53.3634147644043 stress="-0.0007941813673824072 -2.3819868033569946e-07 -1.5883657056292577e-07 -2.3819868033569946e-07 -0.0007939388742670417 -1.1408997124817688e-07 -1.5883657056292577e-07 -1.1408997124817688e-07 -0.0007938997587189078" pbc="T T T"
Li       9.25387995       7.24703237       3.10460814        0       0.00000000       0.00000000       0.00000000       0.00422572      -0.00243447       0.00344846
Li      12.55222827       5.34273008       5.79769826        1       0.00000000       0.00000000       0.00000000      -0.00421119       0.00243294      -0.00344137
Li       9.25387995       5.34273008       5.79769826        2       0.00000000       0.00000000       0.00000000       0.00422464       0.00243840      -0.00344666
Li      12.55222827       7.24703237       3.10460814        3       0.00000000       0.00000000       0.00000000      -0.00421169      -0.00243066       0.00344058
Li      10.90305411       4.39057894       3.10460814        4       0.00000000       0.00000000       0.00000000       0.00000250       0.00487535       0.00344756
Li      10.90305411       8.19918351       5.79769826        5       0.00000000       0.00000000       0.00000000       0.00000210      -0.00486360      -0.00344149
P        7.26870274       4.19658748       2.96743547        6       0.00000000       0.00000000       0.00000000       0.00008592       0.00004589       0.00003569
S        7.26870637       6.13578650       2.28182731        7       0.00000000       0.00000000       0.00000000      -0.00001829      -0.01090883       0.00384768
S        8.94810016       3.22699113       2.28182731        8       0.00000000       0.00000000       0.00000000      -0.00945763       0.00544073       0.00384739
S        5.58931258       3.22699113       2.28182731        9       0.00000000       0.00000000       0.00000000       0.00937774       0.00541283       0.00383060
S        7.26870637       4.19658958       5.02426588       10       0.00000000       0.00000000       0.00000000      -0.00001887      -0.00000910      -0.01156905
S       10.90305411       6.29488123       4.45115320       11       0.00000000       0.00000000       0.00000000      -0.00000242      -0.00000049      -0.00000046
Cl       0.00000000       0.00000000       0.00000000       12       0.00000000       0.00000000       0.00000000       0.00000141       0.00000099       0.00000109
13
Lattice="7.26870274 0.0 0.0 3.634351370000001 6.294881225397555 0.0 3.634351370000001 2.0982937417991856 5.934870934989993" Properties=species:S:1:pos:R:3:spacegroup_kinds:I:1:momenta:R:3:forces:R:3 spacegroup="P 1" unit_cell=conventional occupancy="_JSON {\"0\": {\"Li\": 1}, \"1\": {\"Li\": 1}, \"2\": {\"Li\": 1}, \"3\": {\"Li\": 1}, \"4\": {\"Li\": 1}, \"5\": {\"Li\": 1}, \"6\": {\"P\": 1}, \"7\": {\"S\": 1}, \"8\": {\"S\": 1}, \"9\": {\"S\": 1}, \"10\": {\"S\": 1}, \"11\": {\"S\": 1}, \"12\": {\"Cl\": 1}}" energy=-53.363380432128906 free_energy=-53.363380432128906 stress="-0.0007256552926264703 -1.9937811885029078e-05 -1.6624115232843906e-05 -1.9937811885029078e-05 -0.0008678848971612751 6.695359479635954e-05 -1.6624115232843906e-05 6.695359479635954e-05 -0.0008787551196292043" pbc="T T T"
Li       9.25312738       7.24655111       3.10684544        0      -0.06914625       0.02330612       0.07448166       0.00187586       0.00321458       0.00176588
Li      12.55253915       5.34384541       5.79783151        1      -0.04920736       0.05851502      -0.05074455      -0.00242586       0.00123712      -0.00353684
Li       9.25414319       5.34168545       5.79761296        2      -0.06114111      -0.03113202       0.00945475       0.00464711       0.00139792      -0.00150647
Li      12.55094316       7.24554905       3.10523601        3      -0.13956213      -0.06075214      -0.00297984       0.00001612       0.00547845      -0.00277870
Li      10.90280335       4.39078662       3.10475349        4       0.01080467       0.12285875       0.04070155       0.00006774       0.00172405       0.00185524
Li      10.90365589       8.19880875       5.79890838        5       0.04643318      -0.00831344       0.06528529      -0.00003145      -0.00509153      -0.00778864
P        7.26833942       4.19763251       2.96748845        6      -0.00579489       0.20704179      -0.06816295       0.00996246      -0.03693589      -0.00588826
S        7.26918466       6.13514198       2.28203523        7       0.25483020      -0.23406356      -0.01286487      -0.00545699       0.01226774       0.00061300
S        8.94828371       3.22741696       2.28123511        8       0.01356279       0.13038245      -0.07991342      -0.01823021       0.00578137       0.01035354
S        5.58927252       3.22664215       2.28171679        9       0.03651127      -0.03130756       0.08340791       0.01210526       0.00992016       0.00710751
S        7.26927676       4.19604086       5.02389768       10       0.13315736      -0.16585811      -0.10543939      -0.00462171       0.00321724      -0.00477910
S       10.90236079       6.29479334       4.45123384       11      -0.13647666      -0.03293884       0.04479866       0.00255234      -0.00126951       0.00522745
Cl       0.00008651       0.00056882      -0.00015430       12      -0.03397107       0.02226152       0.00197521      -0.00046067      -0.00094167      -0.00064458
13
Lattice="7.26870274 0.0 0.0 3.634351370000001 6.294881225397555 0.0 3.634351370000001 2.0982937417991856 5.934870934989993" Properties=species:S:1:pos:R:3:spacegroup_kinds:I:1:momenta:R:3:forces:R:3 spacegroup="P 1" unit_cell=conventional occupancy="_JSON {\"0\": {\"Li\": 1}, \"1\": {\"Li\": 1}, \"2\": {\"Li\": 1}, \"3\": {\"Li\": 1}, \"4\": {\"Li\": 1}, \"5\": {\"Li\": 1}, \"6\": {\"P\": 1}, \"7\": {\"S\": 1}, \"8\": {\"S\": 1}, \"9\": {\"S\": 1}, \"10\": {\"S\": 1}, \"11\": {\"S\": 1}, \"12\": {\"Cl\": 1}}" energy=-53.36293029785156 free_energy=-53.36293029785156 stress="-0.0006185598904266953 -6.983022467466071e-05 -0.0001020470735966228 -6.983022467466071e-05 -0.0011313619324937463 0.00015867507318034768 -0.0001020470735966228 0.00015867507318034768 -0.0009227810078300536" pbc="T T T"
Li       9.25049758       7.24815186       3.10902627        0      -0.08182936       0.06109973       0.07857760       0.00701994       0.00112751       0.00932134
Li      12.55118188       5.34565755       5.79612015        1      -0.01736566      -0.00127453      -0.00367639       0.00916842      -0.00504194       0.00569036
Li       9.25213322       5.34025183       5.79855560        2      -0.04733324      -0.06368847       0.00139114       0.01189554       0.00567388      -0.00346981
Li      12.54437907       7.24153820       3.10362534        3      -0.21798495      -0.11230687      -0.05879514       0.02022929       0.02286751      -0.02556324
Li      10.90073462       4.39288081       3.10596202        4      -0.10083195       0.06023081       0.07312969       0.00469782      -0.00887629      -0.00551015
Li      10.90624424       8.19819147       5.80101216        5       0.10987695      -0.01243069       0.08242794       0.00147180      -0.00461859      -0.01779522
P        7.26810938       4.19936314       2.96661111        6      -0.13746857       0.35897928      -0.18552329       0.02446089      -0.10060020       0.01191063
S        7.27118757       6.13347671       2.28189213        7       0.27140502      -0.20466229      -0.20923451      -0.02706171       0.06206173      -0.00626888
S        8.94951684       3.22948735       2.28059460        8       0.18647321       0.36685644      -0.02692463      -0.03352273      -0.00647891       0.01314884
S        5.58878311       3.22565138       2.28334291        9      -0.02290463      -0.24362037       0.22248465       0.01487914       0.02614365       0.00303806
S        7.26949213       4.19531647       5.02345952       10       0.00461874      -0.09428967       0.01370924      -0.01247997       0.00763092      -0.00619267
S       10.90243191       6.29477052       4.45070013       11       0.08005761      -0.12255425      -0.04706166      -0.02048728       0.00125799       0.01993195
Cl      -0.00016693       0.00045415       0.00009918       12      -0.02671317       0.00766089       0.05949536      -0.00027115      -0.00114727       0.00175878
13
Lattice="7.26870274 0.0 0.0 3.634351370000001 6.294881225397555 0.0 3.634351370000001 2.0982937417991856 5.934870934989993" Properties=species:S:1:pos:R:3:spacegroup_kinds:I:1:momenta:R:3:forces:R:3 spacegroup="P 1" unit_cell=conventional occupancy="_JSON {\"0\": {\"Li\": 1}, \"1\": {\"Li\": 1}, \"2\": {\"Li\": 1}, \"3\": {\"Li\": 1}, \"4\": {\"Li\": 1}, \"5\": {\"Li\": 1}, \"6\": {\"P\": 1}, \"7\": {\"S\": 1}, \"8\": {\"S\": 1}, \"9\": {\"S\": 1}, \"10\": {\"S\": 1}, \"11\": {\"S\": 1}, \"12\": {\"Cl\": 1}}" energy=-53.36184310913086 free_energy=-53.36184310913086 stress="-0.0004940245999023318 -4.652177813113667e-05 -0.00012528806109912694 -4.652177813113667e-05 -0.0013945617247372866 0.0002175817935494706 -0.00012528806109912694 0.0002175817935494706 -0.0007839759928174317" pbc="T T T"
Li       9.24916451       7.24921131       3.11401567        0      -0.00277838      -0.03419475       0.14294781       0.00295766       0.00321797       0.01007552
Li      12.55084946       5.34616338       5.79675392        1       0.01174919       0.05128656       0.00988008       0.01515202      -0.00889571       0.00828486
Li       9.25190771       5.33758760       5.79713458        2       0.03143096      -0.10483632      -0.05053861       0.01493275       0.00556903       0.00263740
Li      12.54042710       7.23838496       3.10094074        3      -0.05380370      -0.07073148      -0.04925855       0.02900933       0.03707850      -0.04012468
Li      10.89748482       4.39476467       3.10905213        4      -0.03334641       0.01918946       0.13236330       0.01680747      -0.02623077      -0.01669241
Li      10.91046985       8.19700491       5.80351845        5       0.08515812      -0.10329598       0.00025660       0.00443349      -0.00563317      -0.03368293
P        7.26680234       4.20191785       2.96540862        6      -0.22249719       0.31700346      -0.01881166       0.03246396      -0.17805216       0.05168469
S        7.27285302       6.13178254       2.27971877        7       0.21305654      -0.13582232      -0.44896971      -0.04282466       0.11604364      -0.00080844
S        8.95004076       3.23292753       2.28080651        8      -0.07980095       0.40075060       0.18765722      -0.04169321      -0.02195362       0.01581044
S        5.58865034       3.22332475       2.28297915        9       0.03269581      -0.34670216      -0.17698082       0.01821729       0.05196622       0.01001799
S        7.27020094       4.19391352       5.02473547       10       0.24205881      -0.15421812       0.28534430      -0.02478230       0.01770999      -0.04140840
S       10.90264106       6.29399190       4.45067149       11      -0.02339973      -0.02024253      -0.09068169      -0.02433451       0.00898679       0.03277949
Cl      -0.00079371       0.00128398       0.00055906       12      -0.20052308       0.18181357       0.07679172      -0.00033929       0.00019325       0.00142640
13
Lattice="7.26870274 0.0 0.0 3.634351370000001 6.294881225397555 0.0 3.634351370000001 2.0982937417991856 5.934870934989993" Properties=species:S:1:pos:R:3:spacegroup_kinds:I:1:momenta:R:3:forces:R:3 spacegroup="P 1" unit_cell=conventional occupancy="_JSON {\"0\": {\"Li\": 1}, \"1\": {\"Li\": 1}, \"2\": {\"Li\": 1}, \"3\": {\"Li\": 1}, \"4\": {\"Li\": 1}, \"5\": {\"Li\": 1}, \"6\": {\"P\": 1}, \"7\": {\"S\": 1}, \"8\": {\"S\": 1}, \"9\": {\"S\": 1}, \"10\": {\"S\": 1}, \"11\": {\"S\": 1}, \"12\": {\"Cl\": 1}}" energy=-53.360599517822266 free_energy=-53.360599517822266 stress="-0.00032448736601509154 7.8673503594473e-05 -5.758068436989561e-05 7.8673503594473e-05 -0.0013602874241769314 8.680258906679228e-05 -5.758068436989561e-05 8.680258906679228e-05 -0.0005556014948524535" pbc="T T T"
Li       9.24693452       7.24897090       3.11926037        0      -0.00123211       0.02688698       0.09283177      -0.00215217       0.00785884       0.00819265
Li      12.54991126       5.34837434       5.79839354        1      -0.02861608       0.13160999       0.10634545       0.02657896      -0.01468173       0.01324098
Li       9.25505281       5.33303986       5.79638338        2       0.12103188      -0.09506751      -0.02173178       0.01627328       0.00092462       0.00552213
Li      12.53958312       7.23586998       3.09912117        3      -0.02509882      -0.08548831      -0.07396628       0.03627928       0.04823653      -0.05084469
Li      10.89827890       4.39825496       3.11368134        4      -0.03728590       0.12808726       0.20877632       0.01478429      -0.05425753      -0.03520841
Li      10.91067635       8.19342330       5.80253689        5      -0.00710962      -0.12804063      -0.06294633       0.00537238       0.00751659      -0.03710592
P        7.26497832       4.20289513       2.96535966        6      -0.20018434      -0.01371434      -0.05991697       0.03447470      -0.20000558       0.07601853
S        7.27516168       6.13143192       2.27536250        7       0.45688820       0.01533643      -0.68180249      -0.06208151       0.11315784       0.02090052
S        8.94959623       3.23542168       2.28294896        8      -0.08379970       0.33129644       0.29416689      -0.03592332      -0.03304166       0.01304729
S        5.58725775       3.22052517       2.28194189        9      -0.26265444      -0.38009637      -0.13047120       0.03565134       0.08095467       0.02784568
S        7.27188140       4.19320133       5.02740571       10       0.27452795       0.01438484       0.56596219      -0.04635605       0.02632303      -0.08548257
S       10.90322648       6.29359805       4.44955069       11       0.01522680      -0.09965858      -0.07181599      -0.02412457       0.01441274       0.04549653
Cl      -0.00178765       0.00302388       0.00062248       12      -0.22169383       0.15446379      -0.16543157       0.00122344       0.00260163      -0.00162266
13
Lattice="7.26870274 0.0 0.0 3.634351370000001 6.294881225397555 0.0 3.634351370000001 2.0982937417991856 5.934870934989993" Properties=species:S:1:pos:R:3:spacegroup_kinds:I:1:momenta:R:3:forces:R:3 spacegroup="P 1" unit_cell=conventional occupancy="_JSON {\"0\": {\"Li\": 1}, \"1\": {\"Li\": 1}, \"2\": {\"Li\": 1}, \"3\": {\"Li\": 1}, \"4\": {\"Li\": 1}, \"5\": {\"Li\": 1}, \"6\": {\"P\": 1}, \"7\": {\"S\": 1}, \"8\": {\"S\": 1}, \"9\": {\"S\": 1}, \"10\": {\"S\": 1}, \"11\": {\"S\": 1}, \"12\": {\"Cl\": 1}}" energy=-53.357765197753906 free_energy=-53.357765197753906 stress="-0.00020545796724036336 0.0003203918458893895 7.108577847247943e-05 0.0003203918458893895 -0.001385273179039359 -6.863092130515724e-05 7.108577847247943e-05 -6.863092130515724e-05 -0.00019397751020733267" pbc="T T T"
Li       9.24774846       7.24775523       3.12112175        0       0.01699540      -0.09903241       0.05331477      -0.01040395       0.01309873       0.00291752
Li      12.54892883       5.35317394       5.80350330        1      -0.05565334       0.13730757       0.14538922       0.03820807      -0.01929444       0.00520362
Li       9.25809058       5.32980906       5.79470941        2       0.07028322      -0.10641654      -0.13191007       0.01160279      -0.00588886       0.01419187
Li      12.53740026       7.23202374       3.09647491        3      -0.08635435      -0.12370073      -0.05029551       0.05130748       0.05894893      -0.06543542
Li      10.89514113       4.40252623       3.11945079        4      -0.11076925       0.19088194       0.17233997       0.02818221      -0.08804095      -0.05509592
Li      10.90983141       8.18854309       5.80129556        5      -0.03362045      -0.16120711       0.02583690       0.00527736       0.03105040      -0.03868094
P        7.26441953       4.20319690       2.96508050        6       0.09115760       0.01790141       0.01153008      -0.01566369      -0.20844519       0.12823644
S        7.27952956       6.13028570       2.27039238        7       0.54001355      -0.20314931      -0.60521572      -0.08817920       0.11223839       0.04454230
S        8.94877165       3.23899985       2.28569559        8      -0.18310096       0.53020862       0.34119363      -0.00658791      -0.07002151       0.00654688
S        5.58550243       3.21662038       2.28082791        9      -0.23728758      -0.62961201      -0.16548569       0.06683536       0.12635681       0.05117843
S        7.27262928       4.19347417       5.03153437       10       0.21140336       0.10570983       0.50441528      -0.06382640       0.02905264      -0.15254202
S       10.90334697       6.29366823       4.44860861       11       0.01854019       0.07233773      -0.06912948      -0.01839784       0.01634425       0.05915344
Cl      -0.00303339       0.00459102      -0.00036529       12      -0.24160740       0.26877101      -0.23198337       0.00164572       0.00460079      -0.00021609
13
Lattice="7.26870274 0.0 0.0 3.634351370000001 6.294881225397555 0.0 3.634351370000001 2.0982937417991856 5.934870934989993" Properties=species:S:1:pos:R:3:spacegroup_kinds:I:1:momenta:R:3:forces:R:3 spacegroup="P 1" unit_cell=conventional occupancy="_JSON {\"0\": {\"Li\": 1}, \"1\": {\"Li\": 1}, \"2\": {\"Li\": 1}, \"3\": {\"Li\": 1}, \"4\": {\"Li\": 1}, \"5\": {\"Li\": 1}, \"6\": {\"P\": 1}, \"7\": {\"S\": 1}, \"8\": {\"S\": 1}, \"9\": {\"S\": 1}, \"10\": {\"S\": 1}, \"11\": {\"S\": 1}, \"12\": {\"Cl\": 1}}" energy=-53.35285186767578 free_energy=-53.35285186767578 stress="-0.00020370223501231521 0.0006588418036699295 0.00027432068600319326 0.0006588418036699295 -0.0013891167473047972 -0.0002042818523477763 0.00027432068600319326 -0.0002042818523477763 8.492795313941315e-05" pbc="T T T"
Li       9.24808241       7.24406488       3.12452545        0       0.01412977      -0.11636417       0.14627668      -0.02012554       0.02945642      -0.00720749
Li      12.54773995       5.35590797       5.80886536        1       0.00135765       0.07153250       0.13344631       0.04589257      -0.02370862      -0.00822760
Li       9.26104416       5.32643209       5.78973141        2       0.06763161      -0.10720937      -0.21969420       0.00421850      -0.01608267       0.03845251
Li      12.53453279       7.22883857       3.09368703        3      -0.02261307       0.04617963      -0.06219022       0.06414977       0.06661965      -0.07746476
Li      10.89213138       4.40764648       3.12432641        4      -0.04470494       0.12783752       0.14078545       0.04415635      -0.12580056      -0.07815797
Li      10.90966100       8.18247945       5.80285477        5      -0.02830079      -0.18130503       0.01157325       0.00618387       0.05910853      -0.04718187
P        7.26523465       4.20337212       2.96435969        6       0.10123151      -0.04119669      -0.16220264      -0.11014940      -0.21915904       0.18119358
S        7.28419774       6.12949303       2.26666803        7       0.49243522      -0.05052546      -0.36963188      -0.11681686       0.11333920       0.06507355
S        8.94732556       3.24296852       2.28801489        8      -0.13176933       0.46727573       0.11830661       0.04906541      -0.11640628      -0.00686045
S        5.58405525       3.21141302       2.27934464        9      -0.12989613      -0.69198635      -0.21508614       0.11194821       0.18144508       0.07609046
S        7.27442313       4.19448294       5.03488070       10       0.25070833       0.14550049       0.46403289      -0.08370947       0.02295376      -0.21121678
S       10.90230839       6.29342361       4.44804790       11      -0.17240132      -0.02906378      -0.04113973       0.00247186       0.02137038       0.07357301
Cl      -0.00525114       0.00730607      -0.00103881       12      -0.39780850       0.35932499       0.05552363       0.00271482       0.00686406       0.00193378
13
Lattice="7.26870274 0.0 0.0 3.634351370000001 6.294881225397555 0.0 3.634351370000001 2.0982937417991856 5.934870934989993" Properties=species:S:1:pos:R:3:spacegroup_kinds:I:1:momenta:R:3:forces:R:3 spacegroup="P 1" unit_cell=conventional occupancy="_JSON {\"0\": {\"Li\": 1}, \"1\": {\"Li\": 1}, \"2\": {\"Li\": 1}, \"3\": {\"Li\": 1}, \"4\": {\"Li\": 1}, \"5\": {\"Li\": 1}, \"6\": {\"P\": 1}, \"7\": {\"S\": 1}, \"8\": {\"S\": 1}, \"9\": {\"S\": 1}, \"10\": {\"S\": 1}, \"11\": {\"S\": 1}, \"12\": {\"Cl\": 1}}" energy=-53.34736633300781 free_energy=-53.34736633300781 stress="-0.00015601608902215958 0.0009471515077166259 0.0003559356555342674 0.0009471515077166259 -0.001229066401720047 -0.00033570118830539286 0.0003559356555342674 -0.00033570118830539286 0.000388226326322183" pbc="T T T"
Li       9.24984789       7.23933310       3.12985453        0       0.06956748      -0.14798085       0.11743186      -0.03965237       0.04963576      -0.02659350
Li      12.54857672       5.35780152       5.81156177        1       0.04773416       0.10914860       0.05318013       0.04563036      -0.02235737      -0.01862059
Li       9.26173804       5.32285416       5.78620160        2      -0.06674166      -0.06170514      -0.03084532       0.00608513      -0.02022845       0.05331201
Li      12.53388569       7.22832214       3.09277682        3      -0.02114932       0.01385550       0.00575871       0.07036866       0.07040989      -0.08316689
Li      10.88980569       4.41221860       3.12877345        4      -0.04700425       0.14955650       0.14820567       0.05850065      -0.15712529      -0.09926729
Li      10.90643958       8.17815508       5.80370305        5      -0.12927518      -0.10115618       0.00484265       0.00584001       0.08116452      -0.04775786
P        7.26577210       4.20282361       2.96267733        6       0.02466064      -0.17888312      -0.22330060      -0.17703745      -0.20893988       0.22661367
S        7.28762920       6.13032661       2.26469472        7       0.45955781       0.09419328      -0.21846324      -0.13692716       0.09073852       0.08195288
S        8.94746815       3.24654405       2.28869868        8       0.00859245       0.43710892       0.05458645       0.08206464      -0.14716834      -0.01398473
S        5.58314195       3.20588585       2.27744534        9      -0.15473207      -0.73795871      -0.28218734       0.14953861       0.22655770       0.10220797
S        7.27597674       4.19528233       5.03743565       10       0.20951945       0.12423795       0.25592828      -0.10006993       0.01228790      -0.27218926
S       10.90080721       6.29406681       4.44736094       11      -0.11741113       0.19869188      -0.11318869       0.03008835       0.01743039       0.09618844
Cl      -0.00765259       0.00896986       0.00003020       12      -0.28331838       0.10089138       0.22805144       0.00557055       0.00759467       0.00130519
13
Lattice="7.26870274 0.0 0.0 3.634351370000001 6.294881225397555 0.0 3.634351370000001 2.0982937417991856 5.934870934989993" Properties=species:S:1:pos:R:3:spacegroup_kinds:I:1:momenta:R:3:forces:R:3 spacegroup="P 1" unit_cell=conventional occupancy="_JSON {\"0\": {\"Li\": 1}, \"1\": {\"Li\": 1}, \"2\": {\"Li\": 1}, \"3\": {\"Li\": 1}, \"4\": {\"Li\": 1}, \"5\": {\"Li\": 1}, \"6\": {\"P\": 1}, \"7\": {\"S\": 1}, \"8\": {\"S\": 1}, \"9\": {\"S\": 1}, \"10\": {\"S\": 1}, \"11\": {\"S\": 1}, \"12\": {\"Cl\": 1}}" energy=-53.341800689697266 free_energy=-53.341800689697266 stress="-0.0002749325067270547 0.001275362796150148 0.0003914145054295659 0.001275362796150148 -0.0009767375886440277 -0.0005717697786167264 0.0003914145054295659 -0.0005717697786167264 0.0004187817685306072" pbc="T T T"
Li       9.24990372       7.23425532       3.13532559        0      -0.04092846      -0.10195109       0.17593909      -0.05703553       0.07047614      -0.04292838
Li      12.55068969       5.36140096       5.81261041        1       0.06373845       0.03112991      -0.03150306       0.04187856      -0.01793428      -0.02372592
Li       9.25882298       5.31713154       5.78674469        2      -0.05593719      -0.22029253       0.02939845       0.03049857      -0.00995915       0.04610930
Li      12.53468229       7.22501301       3.09185354        3       0.05958613      -0.18118327      -0.06820966       0.07342236       0.08432730      -0.09138756
Li      10.88916901       4.41566297       3.13259088        4       0.00692696       0.04718833       0.13972110       0.06579384      -0.18035594      -0.11457921
Li      10.90144805       8.17386251       5.80527911        5      -0.11896379      -0.15433361       0.11560779       0.00269742       0.10000637      -0.04873453
P        7.26577750       4.20145461       2.96201558        6      -0.14907050      -0.03797564      -0.01685229      -0.22859016      -0.16908389       0.23705244
S        7.29096167       6.13167335       2.26348072        7       0.47537613       0.16314950      -0.14880993      -0.15947223       0.05246541       0.09929825
S        8.94697080       3.25116980       2.28994449        8      -0.14409026       0.67123775       0.23600335       0.12541918      -0.19131979      -0.02963805
S        5.58262235       3.20073927       2.27578145        9      -0.04544292      -0.74002727      -0.08371984       0.17314178       0.26043835       0.13048697
S        7.27749543       4.19571564       5.03832730       10       0.14207335       0.06711526       0.12463591      -0.12491593      -0.00138601      -0.29488268
S       10.89888820       6.29610788       4.44544487       11      -0.37765042       0.39970409      -0.47047360       0.04819381      -0.00403594       0.13289008
Cl      -0.00814112       0.00944284       0.00078737       12       0.18438251       0.05623858      -0.00173730       0.00896832       0.00636137       0.00003933
13
Lattice="7.26870274 0.0 0.0 3.634351370000001 6.294881225397555 0.0 3.634351370000001 2.0982937417991856 5.934870934989993" Properties=species:S:1:pos:R:3:spacegroup_kinds:I:1:momenta:R:3:forces:R:3 spacegroup="P 1" unit_cell=conventional occupancy="_JSON {\"0\": {\"Li\": 1}, \"1\": {\"Li\": 1}, \"2\": {\"Li\": 1}, \"3\": {\"Li\": 1}, \"4\": {\"Li\": 1}, \"5\": {\"Li\": 1}, \"6\": {\"P\": 1}, \"7\": {\"S\": 1}, \"8\": {\"S\": 1}, \"9\": {\"S\": 1}, \"10\": {\"S\": 1}, \"11\": {\"S\": 1}, \"12\": {\"Cl\": 1}}" energy=-53.33647537231445 free_energy=-53.33647537231445 stress="-0.0004362989857327193 0.0015983369667083025 0.000392570422263816 0.0015983369667083025 -0.0006826628814451396 -0.0007970429142005742 0.000392570422263816 -0.0007970429142005742 0.000270345713943243" pbc="T T T"
Li       9.24746333       7.23234955       3.14059010        0      -0.06744923      -0.01972842       0.09523879      -0.06449351       0.07962114      -0.04637543
Li      12.55156695       5.36568158       5.81339882        1       0.03454840       0.16892290      -0.04942573       0.04111285      -0.01463559      -0.02708458
Li       9.25918101       5.30927691       5.79086413        2       0.00122949      -0.25572797       0.13484696       0.05135284      -0.00245094       0.02182833
Li      12.53913466       7.21824946       3.08855879        3       0.12622164      -0.19354982      -0.12925272       0.05826657       0.10760003      -0.09276209
Li      10.89143740       4.41538981       3.13729669        4       0.10945099      -0.01474127       0.10902308       0.06175984      -0.19229349      -0.12058014
Li      10.89521133       8.16875556       5.81147546        5      -0.20301895      -0.12270235       0.16354296      -0.00209751       0.11508803      -0.07140553
P        7.26418066       4.20066884       2.96181287        6      -0.21715730      -0.10069836      -0.08629954      -0.23470521      -0.14616147       0.25178581
S        7.29406753       6.13304181       2.26271861        7       0.38473271       0.04645223      -0.07356314      -0.18047532       0.02043667       0.11507664
S        8.94595285       3.25628623       2.29145762        8      -0.16635799       0.63909109       0.21270847       0.15915824      -0.23168056      -0.04645327
S        5.58267001       3.19541308       2.27471969        9       0.14615890      -0.59973785      -0.08273458       0.17884810       0.29274333       0.14828895
S        7.27834339       4.19580368       5.03856106       10       0.08702467      -0.08863646      -0.10100269      -0.14948347      -0.00895013      -0.29986691
S       10.89659208       6.29910574       4.44186965       11      -0.32297785       0.45140495      -0.31895844       0.06693572      -0.02808494       0.17138968
Cl      -0.00711626       0.00980335       0.00087565       12       0.08759450       0.08965131       0.12587658       0.01382080       0.00876790      -0.00384144
13