13
Lattice="7.26870274 0.0 0.0 3.634351370000001 6.294881225397555 0.0 3.634351370000001 2.0982937417991856 5.934870934989993" Properties=species:S:1:pos:R:3:spacegroup_kinds:I:1:forces:R:3 spacegroup="P 1" unit_cell=conventional occupancy="_JSON {\"0\": {\"Li\": 1}, \"1\": {\"Li\": 1}, \"2\": {\"Li\": 1}, \"3\": {\"Li\": 1}, \"4\": {\"Li\": 1}, \"5\": {\"Li\": 1}, \"6\": {\"P\": 1}, \"7\": {\"S\": 1}, \"8\": {\"S\": 1}, \"9\": {\"S\": 1}, \"10\": {\"S\": 1}, \"11\": {\"S\": 1}, \"12\": {\"Cl\": 1}}" energy=-53.3634147644043 free_energy=-53.3634147644043 stress="-0.0007941813673824072 -2.3819868033569946e-07 -1.5883657056292577e-07 -2.3819868033569946e-07 -0.0007939388742670417 -1.1408997124817688e-07 -1.5883657056292577e-07 -1.1408997124817688e-07 -0.0007938997587189078" pbc="T T T"
Li       9.25387995       7.24703237       3.10460814        0       0.00422572      -0.00243447       0.00344846
Li      12.55222827       5.34273008       5.79769826        1      -0.00421119       0.00243294      -0.00344137
Li       9.25387995       5.34273008       5.79769826        2       0.00422464       0.00243840      -0.00344666
Li      12.55222827       7.24703237       3.10460814        3      -0.00421169      -0.00243066       0.00344058
Li      10.90305411       4.39057894       3.10460814        4       0.00000250       0.00487535       0.00344756
Li      10.90305411       8.19918351       5.79769826        5       0.00000210      -0.00486360      -0.00344149
P        7.26870274       4.19658748       2.96743547        6       0.00008592       0.00004589       0.00003569
S        7.26870637       6.13578650       2.28182731        7      -0.00001829      -0.01090883       0.00384768
S        8.94810016       3.22699113       2.28182731        8      -0.00945763       0.00544073       0.00384739
S        5.58931258       3.22699113       2.28182731        9       0.00937774       0.00541283       0.00383060
S        7.26870637       4.19658958       5.02426588       10      -0.00001887      -0.00000910      -0.01156905
S       10.90305411       6.29488123       4.45115320       11      -0.00000242      -0.00000049      -0.00000046
Cl       0.00000000       0.00000000       0.00000000       12       0.00000141       0.00000099       0.00000109
