56
Lattice="10.7619164 0.0 0.0 -9.665296305262016 4.732958053065482 0.0 -0.5483100463354086 -2.3664790220718444 10.484177494289693" Properties=species:S:1:pos:R:3:spacegroup_kinds:I:1:forces:R:3 spacegroup="P 1" unit_cell=conventional occupancy="_JSON {\"0\": {\"H\": 1}, \"1\": {\"H\": 1}, \"2\": {\"H\": 1}, \"3\": {\"H\": 1}, \"4\": {\"H\": 1}, \"5\": {\"H\": 1}, \"6\": {\"H\": 1}, \"7\": {\"H\": 1}, \"8\": {\"H\": 1}, \"9\": {\"H\": 1}, \"10\": {\"H\": 1}, \"11\": {\"H\": 1}, \"12\": {\"H\": 1}, \"13\": {\"H\": 1}, \"14\": {\"H\": 1}, \"15\": {\"H\": 1}, \"16\": {\"H\": 1}, \"17\": {\"H\": 1}, \"18\": {\"H\": 1}, \"19\": {\"H\": 1}, \"20\": {\"H\": 1}, \"21\": {\"H\": 1}, \"22\": {\"H\": 1}, \"23\": {\"H\": 1}, \"24\": {\"H\": 1}, \"25\": {\"H\": 1}, \"26\": {\"H\": 1}, \"27\": {\"H\": 1}, \"28\": {\"H\": 1}, \"29\": {\"H\": 1}, \"30\": {\"H\": 1}, \"31\": {\"H\": 1}, \"32\": {\"C\": 1}, \"33\": {\"C\": 1}, \"34\": {\"C\": 1}, \"35\": {\"C\": 1}, \"36\": {\"C\": 1}, \"37\": {\"C\": 1}, \"38\": {\"C\": 1}, \"39\": {\"C\": 1}, \"40\": {\"C\": 1}, \"41\": {\"C\": 1}, \"42\": {\"C\": 1}, \"43\": {\"C\": 1}, \"44\": {\"C\": 1}, \"45\": {\"C\": 1}, \"46\": {\"C\": 1}, \"47\": {\"C\": 1}, \"48\": {\"O\": 1}, \"49\": {\"O\": 1}, \"50\": {\"O\": 1}, \"51\": {\"O\": 1}, \"52\": {\"O\": 1}, \"53\": {\"O\": 1}, \"54\": {\"O\": 1}, \"55\": {\"O\": 1}}" energy=-315.21038818359375 free_energy=-315.21038818359375 stress="0.0014446452260017395 -0.0005629093502648175 8.867831269299131e-08 -0.0005629093502648175 -0.0008545676246285439 -5.65889273218545e-08 8.867831269299131e-08 -5.65889273218545e-08 0.0015756000066176057" pbc="T T T"
H       -0.01146674       2.27735378       1.83228363        0       0.05954292      -0.00327583       0.06233826
H        0.46354042      -0.32622645       8.65189389        1      -0.05491784       0.02317771      -0.06235548
H        7.11783644      -0.62125595       5.76730112        2       0.06303605      -0.00415126      -0.05874483
H        3.54784286       0.20590514       4.71687608        3      -0.05845509       0.02398615       0.05874116
H        5.94073500       0.08912525       3.40980511        4      -0.05953973       0.00327729      -0.06233603
H        4.91741779       0.32622655       7.07437241        5       0.05491369      -0.02316844       0.06236478
H       -1.73687825       0.62125611       9.95896513        6      -0.06303778       0.00415800       0.05874476
H        2.38142539       2.16057388       0.52521269        7       0.05845486      -0.02398824      -0.05874230
H       -1.38551755       1.18149074       2.11598469        8      -0.01113764       0.08955085       0.00594872
H       -8.44966009       2.81824229       8.36819218        9       0.04931326       0.07553591      -0.00592634
H       -2.58205883       2.70548917       6.85853646       10       0.02489255       0.08117890       0.03102866
H       -6.70482302       3.66072964       3.62563947       11       0.01337834       0.08383644      -0.03101388
H       -3.44713062       1.18498829       3.12610408       12       0.01115879      -0.08955120      -0.00594410
H       -6.59659445       1.91471577       7.35807408       13      -0.04930687      -0.07554538       0.00593416
H       -1.70227922       2.02746897       8.86772962       14      -0.02490190      -0.08118922      -0.03099528
H       -7.79312147       3.43870742       1.61644926       15      -0.01337419      -0.08383911       0.03100557
H       -0.77623955       0.71965044       4.36329758       16      -0.01323462      -0.01213547       0.02308635
H        1.56195590       2.67141836       6.12088030       17       0.00653440      -0.01672868      -0.02309649
H       -0.46326720       1.89389614       6.16073603       18       0.01919742      -0.01968154       0.01018756
H        0.70065483      -0.86930480       4.32344242       19      -0.02583040      -0.00920631      -0.01018566
H        6.70550785       1.64682866       0.87879114       20       0.01323253       0.01213457      -0.02308440
H       -5.84629404       2.06153965       9.60538593       21      -0.00653622       0.01672581       0.02309459
H        5.84422537      -1.89389611       9.56553024       22      -0.01918996       0.01966908      -0.01017763
H       -5.53330301       3.23578383       0.91864627       23       0.02584103       0.00921519       0.01018901
H        0.25118892       0.51320652       1.94904363       24      -0.01400607      -0.01703865      -0.02868864
H       -0.54820846      -1.79509607       8.53513266       25       0.00518985      -0.02145190       0.02867849
H       -2.80824660       2.46883416       5.11321221       26      -0.03240790      -0.01272039       0.00990948
H       -6.60574339       3.34870702       5.37096439       27       0.02347640      -0.02566510      -0.00992703
H       -5.08383702       1.85327245       3.29304511       28       0.01400410       0.01703830       0.02868838
H       -4.83274950       1.79509621       7.19113351       29      -0.00520870       0.02144497      -0.02866520
H       -0.92778154       4.63060280       0.12887634       30       0.03240975       0.01272194      -0.00991050
H        2.32140525       1.38425107      10.35530180       31      -0.02347602       0.02567174       0.00991826
C       -0.12855715       1.44666452       3.84724416       32      -0.06474338      -0.02297515       0.02711189
C        0.20337421      -1.12376649       6.63693321       33       0.04808342      -0.04911366      -0.02706075
C       -0.77313049       2.84277399       5.69386795       34       0.01803178      -0.04222398       0.05795781
C        1.39625480      -0.15339358       4.79030936       35      -0.03474241      -0.02991489      -0.05791418
C        6.05782527       0.91981441       1.39484460       36       0.06475999       0.02297503      -0.02710697
C       -5.58433220       1.12376665       9.08933302       37      -0.04809028       0.04911466       0.02707741
C       -3.51120741       1.89018399      10.03239813       38      -0.01806980       0.04223134      -0.05796679
C        4.53301351       2.51987246       0.45177955       39       0.03474554       0.02992454       0.05790991
C       -0.32629463       1.35816530       2.34320610       40       0.01374684       0.00373726      -0.01267599
C        0.34204072      -1.29021280       8.14097362       41      -0.01072522       0.00946280       0.01263997
C       -2.26788801       3.05478922       5.86652618       42      -0.01084419       0.00948888      -0.01263978
C        2.83194262      -0.62035933       4.61765399       43       0.01386584       0.00375944       0.01261353
C        6.25556282       1.00831378       2.89888264       44      -0.01376700      -0.00373861       0.01266749
C       -5.72299918       1.29021260       7.58529264       45       0.01074417      -0.00945273      -0.01267754
C       -2.01645025       1.67816876       9.85974053       46       0.01086763      -0.00949065       0.01260923
C        3.09732573       2.98683830       0.62443474       47      -0.01388455      -0.00375926      -0.01259603
O       -0.42617555       2.75832689       4.28195552       48      -0.00160918      -0.01560186      -0.00606935
O        1.04750943      -0.07664206       6.20222129       49      -0.00535092      -0.01474510       0.00606296
O       -1.17299330      -0.80891944       6.27987373       50      -0.00939901      -0.01381643      -0.00193521
O        1.24603230       1.12411994       4.20430306       51       0.00225511      -0.01656233       0.00193113
O       -3.30985252       4.34111019       0.96013316       52       0.00160942       0.01560172       0.00606016
O        4.33344870       0.07664207       9.52404499       53       0.00535028       0.01474151      -0.00606724
O       -4.20796492       0.80891948       9.44639259       54       0.00941793       0.01382519       0.00193601
O        4.68323599       1.24235916       1.03778561       55      -0.00226718       0.01654604      -0.00193227
