4
Lattice="3.128588 0.0 0.0 -1.5642939988088433 2.709436998432005 0.0 0.0 0.0 5.016955" Properties=species:S:1:pos:R:3:spacegroup_kinds:I:1:momenta:R:3:forces:R:3 spacegroup="P 1" unit_cell=conventional occupancy="_JSON {\"0\": {\"Al\": 1}, \"1\": {\"Al\": 1}, \"2\": {\"N\": 1}, \"3\": {\"N\": 1}}" energy=-29.623741149902344 free_energy=-29.623741149902344 stress="0.004300202243030071 -0.008672715164721012 0.0028819399885833263 -0.008672715164721012 -0.006943750660866499 -0.004434471484273672 0.0028819399885833263 -0.004434471484273672 -0.01483913417905569" pbc="T T T"
Al       1.54321206       0.89379622       2.53645983        0      -0.00705413      -0.41529140       0.79444905      -0.25250161       0.39303043      -0.87834299
Al       0.03580899       1.79893953       4.98957806        1       0.09337923      -0.29525109      -0.61191936      -0.16600929       0.14057966       0.62745094
N        1.59619757       0.90645098       4.40111843        2      -0.02189846       1.09350687       0.27120906      -0.08899998      -0.09593618       0.34911203
N       -0.05911264       1.83464209       1.91219258        3      -0.06442665      -0.38296437      -0.45373882       0.50751090      -0.43767393      -0.09822015
