4
Lattice="3.128588 0.0 0.0 -1.5642939988088433 2.709436998432005 0.0 0.0 0.0 5.016955" Properties=species:S:1:pos:R:3:spacegroup_kinds:I:1:momenta:R:3:forces:R:3 spacegroup="P 1" unit_cell=conventional occupancy="_JSON {\"0\": {\"Al\": 1}, \"1\": {\"Al\": 1}, \"2\": {\"N\": 1}, \"3\": {\"N\": 1}}" energy=-29.673717498779297 free_energy=-29.673717498779297 stress="-0.002225216245278716 -1.4388292584044393e-06 4.693337274375153e-09 -1.4388292584044393e-06 -0.002227393677458167 -7.398988977058707e-09 4.693337274375153e-09 -7.398988977058707e-09 -0.0054536862298846245" pbc="T T T"
Al       1.56429556       0.90314476       2.50490041        0       0.68448204       0.53670047       0.91071479      -0.00003553       0.00002027       0.00553185
Al      -0.00000156       1.80629224       5.01337791        1       0.31075784       0.39520501      -1.87833745       0.00003466      -0.00001957       0.00552457
N        1.56429556       0.90314476       4.41849749        2      -0.23293981      -0.79739853      -0.40745139      -0.00003679       0.00002031      -0.00553121
N       -0.00000156       1.80629224       1.91001999        3      -0.76230006      -0.13450696       1.37507406       0.00003760      -0.00002103      -0.00552500
4
Lattice="3.128588 0.0 0.0 -1.5642939988088433 2.709436998432005 0.0 0.0 0.0 5.016955" Properties=species:S:1:pos:R:3:spacegroup_kinds:I:1:momenta:R:3:forces:R:3 spacegroup="P 1" unit_cell=conventional occupancy="_JSON {\"0\": {\"Al\": 1}, \"1\": {\"Al\": 1}, \"2\": {\"N\": 1}, \"3\": {\"N\": 1}}" energy=-29.43359375 free_energy=-29.43359375 stress="-0.013773562386631966 -0.016446365043520927 0.012948804534971714 -0.016446365043520927 -0.023968789726495743 0.00996971782296896 0.012948804534971714 0.00996971782296896 -0.012059583328664303" pbc="T T T"
Al       1.60246141       0.92231283       2.54150849        0       0.57498213      -0.13491996       1.02882487      -1.31301367      -0.49033448      -0.87831354
Al       0.00328788       1.81111140       4.94718774        1      -0.44725810       0.00118056      -1.07867330      -0.30154151      -0.59423316       1.18011796
N        1.53678589       0.85870779       4.38099595        2       0.14052047      -0.46066726       0.20203876       0.28490800       0.67984557       1.25553656
N       -0.05228246       1.80432671       2.00436659        3      -0.26824454       0.59440670      -0.15219039       1.32964730       0.40472195      -1.55734086
4
Lattice="3.128588 0.0 0.0 -1.5642939988088433 2.709436998432005 0.0 0.0 0.0 5.016955" Properties=species:S:1:pos:R:3:spacegroup_kinds:I:1:momenta:R:3:forces:R:3 spacegroup="P 1" unit_cell=conventional occupancy="_JSON {\"0\": {\"Al\": 1}, \"1\": {\"Al\": 1}, \"2\": {\"N\": 1}, \"3\": {\"N\": 1}}" energy=-29.5672550201416 free_energy=-29.5672550201416 stress="0.012915619648993015 0.0017024528933688998 0.0035793690476566553 0.0017024528933688998 -0.025857215747237206 -0.005369130056351423 0.0035793690476566553 -0.005369130056351423 -0.011435265652835369" pbc="T T T"
Al       1.59598186       0.90138486       2.55101266        0      -0.85003990      -0.64755156      -0.41676283      -0.33522776       0.74370313      -1.26921213
Al      -0.01311799       1.79082859       4.96769656        1      -0.24557005      -0.74327770       1.65595762      -0.18280238      -0.17026763       1.21499741
N        1.52960409       0.86779350       4.41996342        2       0.16413060       0.60763554       0.63654589       0.31887668       0.39321357      -0.09056919
N       -0.00060096       1.87475190       1.90756518        3       0.93147931       0.78319373      -1.87574077       0.19915350      -0.96664894       0.14478371
4
Lattice="3.128588 0.0 0.0 -1.5642939988088433 2.709436998432005 0.0 0.0 0.0 5.016955" Properties=species:S:1:pos:R:3:spacegroup_kinds:I:1:momenta:R:3:forces:R:3 spacegroup="P 1" unit_cell=conventional occupancy="_JSON {\"0\": {\"Al\": 1}, \"1\": {\"Al\": 1}, \"2\": {\"N\": 1}, \"3\": {\"N\": 1}}" energy=-29.406272888183594 free_energy=-29.406272888183594 stress="0.010689056478440762 0.01649811863899231 -0.00816409382969141 0.01649811863899231 -0.00942328292876482 -0.015553975477814674 -0.00816409382969141 -0.015553975477814674 -0.061254095286130905" pbc="T T T"
Al       1.53423928       0.87298461       2.51007452        0      -1.60925386       0.09619218      -1.03262355       0.74608904       1.00298572       0.03482443
Al      -0.01349003       1.78470222       5.05709164        1       0.21561253      -0.04339813       1.72443330       0.02271597       0.40732750      -1.66436994
N        1.55208975       0.92225131       4.42203509        2       0.38659393       0.63935831      -0.93002944       0.04495445      -0.39009491      -0.56986117
N        0.09667394       1.88681817       1.81230436        3       1.00704739      -0.69215232       0.23821959      -0.81375945      -1.02021849       2.19940662
4
Lattice="3.128588 0.0 0.0 -1.5642939988088433 2.709436998432005 0.0 0.0 0.0 5.016955" Properties=species:S:1:pos:R:3:spacegroup_kinds:I:1:momenta:R:3:forces:R:3 spacegroup="P 1" unit_cell=conventional occupancy="_JSON {\"0\": {\"Al\": 1}, \"1\": {\"Al\": 1}, \"2\": {\"N\": 1}, \"3\": {\"N\": 1}}" energy=-29.201902389526367 free_energy=-29.201902389526367 stress="-0.026441199705004692 0.03815557062625885 -0.031382448971271515 0.03815557062625885 -0.004877492785453796 0.001543780555948615 -0.031382448971271515 0.001543780555948615 -0.051820021122694016" pbc="T T T"
Al       1.49382402       0.87740194       2.48150487        0      -0.08661632      -0.02748791       0.25595509       2.48428130      -0.46187085       1.22611618
Al      -0.02076736       1.79337850       5.08843297        1       0.00716702       0.60209040      -1.27068235       0.64723229       0.57433534      -2.36004066
N        1.60157223       0.96971686       4.33361317        2       0.49437308       0.53651057      -0.17473389      -0.53882504      -0.70145452       1.74608946
N        0.13924903       1.81421452       1.89535167        3      -0.41492379      -1.11111301       1.18946105      -2.59268856       0.58898991      -0.61216486
4
Lattice="3.128588 0.0 0.0 -1.5642939988088433 2.709436998432005 0.0 0.0 0.0 5.016955" Properties=species:S:1:pos:R:3:spacegroup_kinds:I:1:momenta:R:3:forces:R:3 spacegroup="P 1" unit_cell=conventional occupancy="_JSON {\"0\": {\"Al\": 1}, \"1\": {\"Al\": 1}, \"2\": {\"N\": 1}, \"3\": {\"N\": 1}}" energy=-29.574626922607422 free_energy=-29.574626922607422 stress="-0.02361803501844406 -0.014321346767246723 -0.011128004640340805 -0.014321346767246723 0.015030029229819775 -0.0028545947279781103 -0.011128004640340805 -0.0028545947279781103 -0.014440375380218029" pbc="T T T"
Al       1.53421962       0.88369271       2.53780578        0       1.55944049       0.36820865       1.55970988       0.29264295      -0.24000359      -0.91367662
Al      -0.00048007       1.82107762       4.98837345        1       1.01688533       0.86374312      -2.47525464       0.94369662       0.52251530       0.78486514
N        1.63583970       0.96584652       4.40663183        2      -0.31021875      -0.52489309       1.27117481      -1.15103924      -0.78907144       0.05687849
N       -0.01177526       1.75252281       1.90648729        3      -2.26610703      -0.70705865      -0.35563016      -0.08530045       0.50655973       0.07193306
4
Lattice="3.128588 0.0 0.0 -1.5642939988088433 2.709436998432005 0.0 0.0 0.0 5.016955" Properties=species:S:1:pos:R:3:spacegroup_kinds:I:1:momenta:R:3:forces:R:3 spacegroup="P 1" unit_cell=conventional occupancy="_JSON {\"0\": {\"Al\": 1}, \"1\": {\"Al\": 1}, \"2\": {\"N\": 1}, \"3\": {\"N\": 1}}" energy=-29.372068405151367 free_energy=-29.372068405151367 stress="-0.005629499442875385 -0.018719594925642014 0.01584937609732151 -0.018719594925642014 -0.03227264806628227 0.017212189733982086 0.01584937609732151 0.017212189733982086 -0.007298379670828581" pbc="T T T"
Al       1.57072835       0.88046442       2.56331973        0      -0.00039236      -0.37629533      -0.57843983      -1.34386206      -0.44065446      -1.50707853
Al       0.05055070       1.86456080       4.94968571        1       0.52727045       0.77034206       1.04960103      -0.49128661      -1.36434090       1.82584679
N        1.58204802       0.88176660       4.44992394        2      -0.27832317      -1.02263428      -0.55459316       0.15003321       1.16376317      -0.85894823
N       -0.12661087       1.75915457       1.88869861        3      -0.24855489       0.62858760       0.08343190       1.68511534       0.64123231       0.54018015
4
Lattice="3.128588 0.0 0.0 -1.5642939988088433 2.709436998432005 0.0 0.0 0.0 5.016955" Properties=species:S:1:pos:R:3:spacegroup_kinds:I:1:momenta:R:3:forces:R:3 spacegroup="P 1" unit_cell=conventional occupancy="_JSON {\"0\": {\"Al\": 1}, \"1\": {\"Al\": 1}, \"2\": {\"N\": 1}, \"3\": {\"N\": 1}}" energy=-29.596923828125 free_energy=-29.596923828125 stress="0.01597646251320839 -0.004505866207182407 0.00601862883195281 -0.004505866207182407 -0.025499489158391953 -0.004597146529704332 0.00601862883195281 -0.004597146529704332 -0.010013852268457413" pbc="T T T"
Al       1.53284808       0.86390066       2.51395077        0      -1.59464506      -0.16469638      -1.74991281      -0.27820650       0.89915872      -0.15420647
Al       0.06317843       1.83227867       5.00948377        1       0.38440058      -1.80666610       1.59449842      -0.58708322      -0.41271669       0.16725175
N        1.58572473       0.89623784       4.41422576        2       0.14193110       1.12964951      -0.09119182       0.25704023       0.38076684       0.00228061
N       -0.08152106       1.83862422       1.90381445        3       1.06831340       0.84171298       0.24660615       0.60824943      -0.86720854      -0.01532554
4
Lattice="3.128588 0.0 0.0 -1.5642939988088433 2.709436998432005 0.0 0.0 0.0 5.016955" Properties=species:S:1:pos:R:3:spacegroup_kinds:I:1:momenta:R:3:forces:R:3 spacegroup="P 1" unit_cell=conventional occupancy="_JSON {\"0\": {\"Al\": 1}, \"1\": {\"Al\": 1}, \"2\": {\"N\": 1}, \"3\": {\"N\": 1}}" energy=-29.462553024291992 free_energy=-29.462553024291992 stress="-0.005697158630937338 0.01084950566291809 -0.003906555008143187 0.01084950566291809 -0.0191337987780571 -0.012703219428658485 -0.003906555008143187 -0.012703219428658485 -0.011871392838656902" pbc="T T T"
Al       1.48347331       0.88264396       2.44527931        0      -0.30454525       1.01149528      -0.60004566       0.88393074       0.95768416       1.70776963
Al       0.06164411       1.77681261       5.07306066        1      -0.86715308      -0.75617407       0.43048967      -0.30080599       0.71655571      -1.72279918
N        1.61717706       0.94947183       4.40498425        2       0.38645906       0.04830122       0.18623280      -0.07233984      -0.67486238       0.48910671
N       -0.01486931       1.85626146       1.92266704        3       0.78523926      -0.30362244      -0.01667692      -0.51078492      -0.99937719      -0.47407708
4
Lattice="3.128588 0.0 0.0 -1.5642939988088433 2.709436998432005 0.0 0.0 0.0 5.016955" Properties=species:S:1:pos:R:3:spacegroup_kinds:I:1:momenta:R:3:forces:R:3 spacegroup="P 1" unit_cell=conventional occupancy="_JSON {\"0\": {\"Al\": 1}, \"1\": {\"Al\": 1}, \"2\": {\"N\": 1}, \"3\": {\"N\": 1}}" energy=-29.518747329711914 free_energy=-29.518747329711914 stress="-0.023370740935206413 0.006540096830576658 -0.01609829068183899 0.006540096830576658 0.006697440054267645 -0.00048240943579003215 -0.01609829068183899 -0.00048240943579003215 -0.02216132916510105" pbc="T T T"
Al       1.50607639       0.94974319       2.46463694        0       1.15921327       0.62635171       1.50689841       1.24247587      -0.60704637       1.15697289
Al       0.01335469       1.75088041       5.06242873        1      -0.91112064       0.14825250      -0.88962551       0.51474583       0.69610697      -1.43088949
N        1.62637958       0.90489622       4.42127857        2      -0.14223480      -0.64065039       0.21498421      -0.71771753      -0.51824290      -0.07984693
N        0.02538011       1.82158363       1.88963025        3      -0.10585785      -0.13395381      -0.83225721      -1.03950417       0.42918235       0.35376352
4
Lattice="3.128588 0.0 0.0 -1.5642939988088433 2.709436998432005 0.0 0.0 0.0 5.016955" Properties=species:S:1:pos:R:3:spacegroup_kinds:I:1:momenta:R:3:forces:R:3 spacegroup="P 1" unit_cell=conventional occupancy="_JSON {\"0\": {\"Al\": 1}, \"1\": {\"Al\": 1}, \"2\": {\"N\": 1}, \"3\": {\"N\": 1}}" energy=-29.605009078979492 free_energy=-29.605009078979492 stress="0.0015960924793034792 -0.006785969715565443 -0.003095421241596341 -0.006785969715565443 0.0017807718832045794 0.0017244850751012564 -0.003095421241596341 0.0017244850751012564 -0.023114889860153198" pbc="T T T"
Al       1.56693926       0.93861028       2.54470906        0       1.44875353      -0.98943870       1.48437388      -0.01659401      -0.29131347      -1.20299506
Al      -0.01304571       1.78057348       4.99752453        1       0.01689810       1.11024978      -1.70729987       0.38438910       0.02358258       0.50759375
N        1.58384204       0.87104971       4.42155574        2      -0.67927490      -0.02704956      -0.19037202      -0.39237112       0.15177913      -0.39792591
N        0.00122212       1.81989281       1.85992050        3      -0.78637677      -0.09376152       0.41329792       0.02457598       0.11595185       1.09332716
4
Lattice="3.128588 0.0 0.0 -1.5642939988088433 2.709436998432005 0.0 0.0 0.0 5.016955" Properties=species:S:1:pos:R:3:spacegroup_kinds:I:1:momenta:R:3:forces:R:3 spacegroup="P 1" unit_cell=conventional occupancy="_JSON {\"0\": {\"Al\": 1}, \"1\": {\"Al\": 1}, \"2\": {\"N\": 1}, \"3\": {\"N\": 1}}" energy=-29.470205307006836 free_energy=-29.470205307006836 stress="0.003203007858246565 -0.017801616340875626 0.011838431470096111 -0.017801616340875626 -0.041349224746227264 0.007359725888818502 0.011838431470096111 0.007359725888818502 -0.005160385277122259" pbc="T T T"
Al       1.62755630       0.89950075       2.54516750        0       1.04970804      -0.99981874      -0.80202844      -1.41064179       0.15933460      -0.91779244
Al      -0.00757058       1.81703573       4.95606284        1      -0.03757942       0.11959837      -0.16512835      -0.26242921      -0.84351301       1.41446030
N        1.52756231       0.85151206       4.42065483        2      -0.42752228       0.29023074      -0.07965787       0.31765831       0.98894519      -0.00115619
N       -0.06966667       1.84442116       1.93994534        3      -0.58460636       0.58998964       1.04681460       1.35541248      -0.30476683      -0.49551177
4
Lattice="3.128588 0.0 0.0 -1.5642939988088433 2.709436998432005 0.0 0.0 0.0 5.016955" Properties=species:S:1:pos:R:3:spacegroup_kinds:I:1:momenta:R:3:forces:R:3 spacegroup="P 1" unit_cell=conventional occupancy="_JSON {\"0\": {\"Al\": 1}, \"1\": {\"Al\": 1}, \"2\": {\"N\": 1}, \"3\": {\"N\": 1}}" energy=-29.452985763549805 free_energy=-29.452985763549805 stress="-0.013225016184151173 -0.023750055581331253 0.007911420427262783 -0.023750055581331253 -0.0479319728910923 -0.007333327550441027 0.007911420427262783 -0.007333327550441027 0.028632869943976402" pbc="T T T"
Al       1.63184044       0.85684027       2.46693550        0      -0.97589062      -0.55899544      -1.34838296      -1.39010584       1.11026657       1.17303634
Al      -0.02377745       1.82170282       4.98999596        1      -0.28018855       0.45883540       1.28013446      -0.08532751       0.08283778       0.34697819
N        1.52792694       0.92957752       4.44479000        2       0.11446498       0.97873223       0.08012587       0.22036436      -0.17399079       0.05598716
N       -0.04718875       1.83921502       2.00086010        3       1.14161409      -0.87857217      -0.01187739       1.25506878      -1.01911354      -1.57600188
4
Lattice="3.128588 0.0 0.0 -1.5642939988088433 2.709436998432005 0.0 0.0 0.0 5.016955" Properties=species:S:1:pos:R:3:spacegroup_kinds:I:1:momenta:R:3:forces:R:3 spacegroup="P 1" unit_cell=conventional occupancy="_JSON {\"0\": {\"Al\": 1}, \"1\": {\"Al\": 1}, \"2\": {\"N\": 1}, \"3\": {\"N\": 1}}" energy=-29.53631591796875 free_energy=-29.53631591796875 stress="-0.019857468083500862 0.013829078525304794 -0.005717417690902948 0.013829078525304794 -0.0031640080269426107 -0.001671027741394937 -0.005717417690902948 -0.001671027741394937 -0.006260679569095373" pbc="T T T"
Al       1.56291509       0.86348348       2.43836899        0      -1.44558912       0.38889162       0.34074977       0.67285866       0.11609498       1.45909607
Al      -0.01834144       1.83613138       5.05736566        1       0.19731457      -0.00921534       1.04742149       0.06595204       0.15003638      -1.19267464
N        1.54726696       0.95741148       4.47045639        2      -0.01023943       0.05685002       0.14844052       0.09761433      -0.44420958      -0.65174675
N        0.05576966       1.77068661       1.90062723        3       1.25851393      -0.43652629      -1.53661182      -0.83642507       0.17807813       0.38532564
4
Lattice="3.128588 0.0 0.0 -1.5642939988088433 2.709436998432005 0.0 0.0 0.0 5.016955" Properties=species:S:1:pos:R:3:spacegroup_kinds:I:1:momenta:R:3:forces:R:3 spacegroup="P 1" unit_cell=conventional occupancy="_JSON {\"0\": {\"Al\": 1}, \"1\": {\"Al\": 1}, \"2\": {\"N\": 1}, \"3\": {\"N\": 1}}" energy=-29.5310001373291 free_energy=-29.5310001373291 stress="-0.018294140696525574 0.01570757105946541 -0.01160773541778326 0.01570757105946541 0.003148278221487999 0.004605625756084919 -0.01160773541778326 0.004605625756084919 -0.017258718609809875" pbc="T T T"
Al       1.54701073       0.87273547       2.46070915        0       0.71855706      -0.11584375       0.49435300       1.07476628      -0.28505614       1.06925476
Al      -0.01761630       1.84389395       5.05391118        1       0.19346425       0.17720397      -0.69190173       0.23187783      -0.07941829      -1.16825163
N        1.56395353       0.94331121       4.45961397        2       0.32487445      -0.12409422      -0.51346224      -0.11547115      -0.20503399      -0.72920233
N        0.06831355       1.75176763       1.87546333        3      -1.23689574       0.06273405       0.71101095      -1.19117308       0.56950867       0.82819915
4
Lattice="3.128588 0.0 0.0 -1.5642939988088433 2.709436998432005 0.0 0.0 0.0 5.016955" Properties=species:S:1:pos:R:3:spacegroup_kinds:I:1:momenta:R:3:forces:R:3 spacegroup="P 1" unit_cell=conventional occupancy="_JSON {\"0\": {\"Al\": 1}, \"1\": {\"Al\": 1}, \"2\": {\"N\": 1}, \"3\": {\"N\": 1}}" energy=-29.613210678100586 free_energy=-29.613210678100586 stress="-0.008381669409573078 -0.004276691935956478 0.005492823664098978 -0.004276691935956478 -0.0139370858669281 0.0014804432867094874 0.005492823664098978 0.0014804432867094874 0.012475412338972092" pbc="T T T"
Al       1.57767908       0.87033377       2.48321562        0       0.42145951      -0.10086036       0.75449347      -0.50598752       0.14215323       0.64867598
Al       0.00878681       1.84488740       5.00616576        1       0.94842596       0.04829665      -0.67234681      -0.28190929      -0.37569642       0.05942924
N        1.54733736       0.91884312       4.41695258        2      -0.50233625      -0.06173854      -0.86681646       0.26756680       0.16352475       0.34766716
N       -0.02491942       1.77881445       1.96659668        3      -0.86754921       0.11430232       0.78466978       0.52033001       0.07001861      -1.05577219
4
Lattice="3.128588 0.0 0.0 -1.5642939988088433 2.709436998432005 0.0 0.0 0.0 5.016955" Properties=species:S:1:pos:R:3:spacegroup_kinds:I:1:momenta:R:3:forces:R:3 spacegroup="P 1" unit_cell=conventional occupancy="_JSON {\"0\": {\"Al\": 1}, \"1\": {\"Al\": 1}, \"2\": {\"N\": 1}, \"3\": {\"N\": 1}}" energy=-29.55784034729004 free_energy=-29.55784034729004 stress="-0.01636386662721634 -0.0029478424694389105 0.012903883121907711 -0.0029478424694389105 -0.006207904778420925 0.0015376084484159946 0.012903883121907711 0.0015376084484159946 -0.0027148211374878883" pbc="T T T"
Al       1.59068815       0.88023430       2.52274582        0      -0.41625599       0.17887076       0.33160803      -0.90884197      -0.14031421      -0.36868030
Al       0.01872294       1.83477378       4.97781990        1       0.14974004      -0.20763037      -0.17578527      -0.72829765      -0.10046482       0.72652894
N        1.52039167       0.92489994       4.39464375        2       0.19754370       0.25939874       0.47781814       0.72475874      -0.09604802       0.71574372
N       -0.04216870       1.77342029       1.96745701        3       0.06897228      -0.23063910      -0.63364093       0.91238081       0.33682704      -1.07359195
4
Lattice="3.128588 0.0 0.0 -1.5642939988088433 2.709436998432005 0.0 0.0 0.0 5.016955" Properties=species:S:1:pos:R:3:spacegroup_kinds:I:1:momenta:R:3:forces:R:3 spacegroup="P 1" unit_cell=conventional occupancy="_JSON {\"0\": {\"Al\": 1}, \"1\": {\"Al\": 1}, \"2\": {\"N\": 1}, \"3\": {\"N\": 1}}" energy=-29.621112823486328 free_energy=-29.621112823486328 stress="-0.02150089107453823 0.00527665251865983 -0.0032674958929419518 0.00527665251865983 0.01065760012716055 0.0019249944016337395 -0.0032674958929419518 0.0019249944016337395 -0.0015898373676463962" pbc="T T T"
Al       1.54767649       0.89587763       2.50832857        0      -0.85810077       0.46896525      -1.00002947       0.39160621      -0.39029270      -0.15032566
Al       0.00665804       1.82067516       5.00342493        1      -0.72966985      -0.11082630       1.46536734      -0.00949985       0.22696947       0.34862998
N        1.57185929       0.94293296       4.45440721        2       0.62349914      -0.37686533       0.64593183      -0.01969689      -0.43335313      -0.83890200
N        0.01256030       1.75229423       1.88600533        3       0.96427150       0.01872642      -1.11126965      -0.36240968       0.59667641       0.64059782
4
Lattice="3.128588 0.0 0.0 -1.5642939988088433 2.709436998432005 0.0 0.0 0.0 5.016955" Properties=species:S:1:pos:R:3:spacegroup_kinds:I:1:momenta:R:3:forces:R:3 spacegroup="P 1" unit_cell=conventional occupancy="_JSON {\"0\": {\"Al\": 1}, \"1\": {\"Al\": 1}, \"2\": {\"N\": 1}, \"3\": {\"N\": 1}}" energy=-29.520856857299805 free_energy=-29.520856857299805 stress="-0.014047548174858093 0.01182093657553196 -0.014255616813898087 0.01182093657553196 -0.00561463413760066 0.00936149898916483 -0.014255616813898087 0.00936149898916483 -0.01957099512219429" pbc="T T T"
Al       1.52999425       0.91403918       2.46474573        0       0.09545054      -0.23101242      -1.18071325       1.21875572      -0.63577449       0.99290138
Al      -0.00890654       1.82180734       5.05208964        1       0.31216867      -0.10747448       0.45537714       0.39472717      -0.38378400      -1.12710273
N        1.59437714       0.88605551       4.45928983        2      -0.04798986      -0.53350313      -0.20523328      -0.40810490       0.35578889      -0.79021680
N        0.05384452       1.77207218       1.87144995        3      -0.35962934       0.87199007       0.93056937      -1.20537806       0.66376948       0.92441821
4
Lattice="3.128588 0.0 0.0 -1.5642939988088433 2.709436998432005 0.0 0.0 0.0 5.016955" Properties=species:S:1:pos:R:3:spacegroup_kinds:I:1:momenta:R:3:forces:R:3 spacegroup="P 1" unit_cell=conventional occupancy="_JSON {\"0\": {\"Al\": 1}, \"1\": {\"Al\": 1}, \"2\": {\"N\": 1}, \"3\": {\"N\": 1}}" energy=-29.61878776550293 free_energy=-29.61878776550293 stress="0.01011752150952816 -0.0018219186458736658 -0.0018730812007561326 -0.0018219186458736658 -0.024783167988061905 0.004591138567775488 -0.0018730812007561326 0.004591138567775488 2.639703052409459e-05" pbc="T T T"
Al       1.53818031       0.90928018       2.47247633        0       0.23228659      -0.27447332       1.41733273       0.21200752       0.18702227       0.85530514
Al       0.01802690       1.81430745       5.03506514        1       0.60360824      -0.42930289      -1.11140702       0.03760117      -0.69444108      -0.55142742
N        1.59518016       0.85128047       4.42414639        2       0.09084583       0.02420761      -0.77345560      -0.19470057       0.84070587       0.01229048
N       -0.01452982       1.83034437       1.92467355        3      -0.92674067       0.67956866       0.46752985      -0.05490798      -0.33328703      -0.31616825
4
Lattice="3.128588 0.0 0.0 -1.5642939988088433 2.709436998432005 0.0 0.0 0.0 5.016955" Properties=species:S:1:pos:R:3:spacegroup_kinds:I:1:momenta:R:3:forces:R:3 spacegroup="P 1" unit_cell=conventional occupancy="_JSON {\"0\": {\"Al\": 1}, \"1\": {\"Al\": 1}, \"2\": {\"N\": 1}, \"3\": {\"N\": 1}}" energy=-29.623741149902344 free_energy=-29.623741149902344 stress="0.004300202243030071 -0.008672715164721012 0.0028819399885833263 -0.008672715164721012 -0.006943750660866499 -0.004434471484273672 0.0028819399885833263 -0.004434471484273672 -0.01483913417905569" pbc="T T T"
Al       1.54321206       0.89379622       2.53645983        0      -0.00705413      -0.41529140       0.79444905      -0.25250161       0.39303043      -0.87834299
Al       0.03580899       1.79893953       4.98957806        1       0.09337923      -0.29525109      -0.61191936      -0.16600929       0.14057966       0.62745094
N        1.59619757       0.90645098       4.40111843        2      -0.02189846       1.09350687       0.27120906      -0.08899998      -0.09593618       0.34911203
N       -0.05911264       1.83464209       1.91219258        3      -0.06442665      -0.38296437      -0.45373882       0.50751090      -0.43767393      -0.09822015
