4
Lattice="3.128588 0.0 0.0 -1.5642939988088433 2.709436998432005 0.0 0.0 0.0 5.016955" Properties=species:S:1:pos:R:3:spacegroup_kinds:I:1:forces:R:3 spacegroup="P 1" unit_cell=conventional occupancy="_JSON {\"0\": {\"Al\": 1}, \"1\": {\"Al\": 1}, \"2\": {\"N\": 1}, \"3\": {\"N\": 1}}" energy=-29.673717498779297 free_energy=-29.673717498779297 stress="-0.002225216245278716 -1.4388292584044393e-06 4.693337274375153e-09 -1.4388292584044393e-06 -0.002227393677458167 -7.398988977058707e-09 4.693337274375153e-09 -7.398988977058707e-09 -0.0054536862298846245" pbc="T T T"
Al       1.56429556       0.90314476       2.50490041        0      -0.00003553       0.00002027       0.00553185
Al      -0.00000156       1.80629224       5.01337791        1       0.00003466      -0.00001957       0.00552457
N        1.56429556       0.90314476       4.41849749        2      -0.00003679       0.00002031      -0.00553121
N       -0.00000156       1.80629224       1.91001999        3       0.00003760      -0.00002103      -0.00552500
