32
Lattice="6.17176593 0.0 0.0 0.0 8.01859859 0.0 0.0 0.0 13.03281824" Properties=species:S:1:pos:R:3:spacegroup_kinds:I:1:forces:R:3 spacegroup="P 1" unit_cell=conventional occupancy="_JSON {\"0\": {\"Li\": 1}, \"1\": {\"Li\": 1}, \"2\": {\"Li\": 1}, \"3\": {\"Li\": 1}, \"4\": {\"Li\": 1}, \"5\": {\"Li\": 1}, \"6\": {\"Li\": 1}, \"7\": {\"Li\": 1}, \"8\": {\"Li\": 1}, \"9\": {\"Li\": 1}, \"10\": {\"Li\": 1}, \"11\": {\"Li\": 1}, \"12\": {\"P\": 1}, \"13\": {\"P\": 1}, \"14\": {\"P\": 1}, \"15\": {\"P\": 1}, \"16\": {\"S\": 1}, \"17\": {\"S\": 1}, \"18\": {\"S\": 1}, \"19\": {\"S\": 1}, \"20\": {\"S\": 1}, \"21\": {\"S\": 1}, \"22\": {\"S\": 1}, \"23\": {\"S\": 1}, \"24\": {\"S\": 1}, \"25\": {\"S\": 1}, \"26\": {\"S\": 1}, \"27\": {\"S\": 1}, \"28\": {\"S\": 1}, \"29\": {\"S\": 1}, \"30\": {\"S\": 1}, \"31\": {\"S\": 1}}" energy=-140.3463134765625 free_energy=-140.3463134765625 stress="-0.002888607792556286 -2.7296227500528403e-09 -1.837866925313847e-08 -2.7296227500528403e-09 -0.004072273150086403 2.0587400229032937e-08 -1.837866925313847e-08 2.0587400229032937e-08 -0.002593571785837412" pbc="T T T"
Li       2.40166815       0.26892251       4.33377960        0      -0.01548858       0.00235988       0.00063270
Li       3.77009793       7.74967601       8.69903848        1       0.01548954      -0.00236118      -0.00063149
Li       5.48755108       7.74967602       2.18262942        2      -0.01549323      -0.00236098      -0.00063240
Li       0.68421472       0.26892247      10.85018871        3       0.01549192       0.00236104       0.00063241
Li       3.77009792       4.27822190       8.69903840        4       0.01548889       0.00235863      -0.00063349
Li       2.40166817       3.74037680       4.33377963        5      -0.01548953      -0.00236011       0.00063324
Li       0.68421479       3.74037684      10.85018867        6       0.01549165      -0.00236093       0.00063145
Li       5.48755103       4.27822189       2.18262938        7      -0.01549103       0.00235991      -0.00063076
Li       3.08588290      -0.00000019       0.00000015        8      -0.00000026       0.00000074       0.00000012
Li       0.00000001      -0.00000008       6.51640924        9       0.00000162       0.00000056      -0.00000116
Li       3.08588297       4.00929938       0.00000004       10      -0.00000270      -0.00000210      -0.00000067
Li      -0.00000001       4.00929926       6.51640916       11      -0.00000010      -0.00000239      -0.00000305
P        0.93932954       2.00464925       1.16793465       12      -0.00066831       0.00001731       0.03303448
P        5.23243629       6.01394876      11.86488426       13       0.00067079       0.00000094      -0.03306036
P        4.02521220       6.01394903       5.34847529       14      -0.00065091      -0.00000121      -0.03306419
P        2.14655384       2.00464970       7.68434318       15       0.00065227       0.00000078       0.03305345
S        5.07612370       2.00464976       1.30682514       16       0.00279950      -0.00000054       0.01274816
S        1.09564243       6.01394885      11.72599299       17      -0.00280958      -0.00000187      -0.01274595
S        1.99024095       6.01394890       5.20958392       18       0.00279132       0.00000030      -0.01274491
S        4.18152503       2.00464957       7.82323418       19      -0.00279269       0.00000151       0.01274848
S        1.68772172       2.00464971      12.25093568       20       0.03397168      -0.00000080       0.02524692
S        4.48404412       6.01394885       0.78188261       21      -0.03397323       0.00000101      -0.02523369
S        4.77360475       6.01394891       7.29829158       22       0.03397268       0.00000026      -0.02523546
S        1.39816134       2.00464969       5.73452690       23      -0.03397298       0.00000028       0.02524086
S        1.68016696       0.28147997       2.00960384       24       0.02273699      -0.00260359      -0.01691466
S        4.49159898       7.73711930      11.02321409       25      -0.02272973       0.00258646       0.01692429
S        4.76604990       7.73711926       4.50680507       26       0.02272853       0.00258214       0.01692800
S        1.40571577       0.28147961       8.52601306       27      -0.02272755      -0.00258309      -0.01692871
S        4.49159899       4.29077884      11.02321427       28      -0.02272987      -0.00258532       0.01692539
S        1.68016705       3.72781971       2.00960387       29       0.02273066       0.00258682      -0.01692319
S        1.40571575       3.72781970       8.52601305       30      -0.02272722       0.00258726      -0.01692651
S        4.76604997       4.29077865       4.50680509       31       0.02272957      -0.00258179       0.01693052
