4
Lattice="3.128588 0.0 0.0 -1.5642939988088433 2.709436998432005 0.0 0.0 0.0 5.016955" Properties=species:S:1:pos:R:3:spacegroup_kinds:I:1:forces:R:3 spacegroup="P 1" unit_cell=conventional occupancy="_JSON {\"0\": {\"Al\": 1}, \"1\": {\"Al\": 1}, \"2\": {\"N\": 1}, \"3\": {\"N\": 1}}" energy=-29.673717498779297 free_energy=-29.673717498779297 stress="-0.0022254486102610826 -1.405174657520547e-06 -2.1424387597335226e-08 -1.405174657520547e-06 -0.0022276663221418858 -3.277314064575876e-08 -2.1424387597335226e-08 -3.277314064575876e-08 -0.005453742109239101" pbc="T T T"
Al       1.56429556       0.90314476       2.50490041        0      -0.00003469       0.00001981       0.00553186
Al      -0.00000156       1.80629224       5.01337791        1       0.00003375      -0.00002041       0.00552500
N        1.56429556       0.90314476       4.41849749        2      -0.00003589       0.00002124      -0.00553123
N       -0.00000156       1.80629224       1.91001999        3       0.00003678      -0.00002067      -0.00552486
