4
Lattice="3.128588 0.0 0.0 -1.5642939988088433 2.709436998432005 0.0 0.0 0.0 5.016955" Properties=species:S:1:pos:R:3:spacegroup_kinds:I:1:momenta:R:3:forces:R:3 spacegroup="P 1" unit_cell=conventional occupancy="_JSON {\"0\": {\"Al\": 1}, \"1\": {\"Al\": 1}, \"2\": {\"N\": 1}, \"3\": {\"N\": 1}}" energy=-29.623743057250977 free_energy=-29.623743057250977 stress="0.0043003796599805355 -0.008672390133142471 0.002881825203076005 -0.008672390133142471 -0.006943749263882637 -0.0044344887137413025 0.002881825203076005 -0.0044344887137413025 -0.01483894046396017" pbc="T T T"
Al       1.54321202       0.89379626       2.53645985        0      -0.00705443      -0.41529053       0.79444917      -0.25250173       0.39302781      -0.87834412
Al       0.03580899       1.79893951       4.98957806        1       0.09337955      -0.29525088      -0.61191925      -0.16601157       0.14058118       0.62744927
N        1.59619762       0.90645092       4.40111845        2      -0.02189824       1.09350629       0.27120873      -0.08899567      -0.09593835       0.34911251
N       -0.05911259       1.83464209       1.91219260        3      -0.06442689      -0.38296491      -0.45373867       0.50750899      -0.43767053      -0.09821783
