4
Lattice="3.128588 0.0 0.0 -1.5642939988088433 2.709436998432005 0.0 0.0 0.0 5.016955" Properties=species:S:1:pos:R:3:spacegroup_kinds:I:1:momenta:R:3:forces:R:3 spacegroup="P 1" unit_cell=conventional occupancy="_JSON {\"0\": {\"Al\": 1}, \"1\": {\"Al\": 1}, \"2\": {\"N\": 1}, \"3\": {\"N\": 1}}" energy=-29.673717498779297 free_energy=-29.673717498779297 stress="-0.0022253389470279217 -1.3961420108898892e-06 -8.307866394829944e-09 -1.3961420108898892e-06 -0.0022276295349001884 -6.371003280492005e-08 -8.307866394829944e-09 -6.371003280492005e-08 -0.005453648045659065" pbc="T T T"
Al       1.56429556       0.90314476       2.50490041        0       0.68448204       0.53670047       0.91071479      -0.00003356       0.00002104       0.00553191
Al      -0.00000156       1.80629224       5.01337791        1       0.31075784       0.39520501      -1.87833745       0.00003486      -0.00001952       0.00552488
N        1.56429556       0.90314476       4.41849749        2      -0.23293981      -0.79739853      -0.40745139      -0.00003623       0.00002029      -0.00553066
N       -0.00000156       1.80629224       1.91001999        3      -0.76230006      -0.13450696       1.37507406       0.00003488      -0.00002164      -0.00552604
4
Lattice="3.128588 0.0 0.0 -1.5642939988088433 2.709436998432005 0.0 0.0 0.0 5.016955" Properties=species:S:1:pos:R:3:spacegroup_kinds:I:1:momenta:R:3:forces:R:3 spacegroup="P 1" unit_cell=conventional occupancy="_JSON {\"0\": {\"Al\": 1}, \"1\": {\"Al\": 1}, \"2\": {\"N\": 1}, \"3\": {\"N\": 1}}" energy=-29.43359375 free_energy=-29.43359375 stress="-0.013773481361567974 -0.016446450725197792 0.012948774732649326 -0.016446450725197792 -0.023968778550624847 0.009969700127840042 0.012948774732649326 0.009969700127840042 -0.012059392407536507" pbc="T T T"
Al       1.60246140       0.92231283       2.54150850        0       0.57498213      -0.13491998       1.02882509      -1.31301296      -0.49033427      -0.87831283
Al       0.00328788       1.81111140       4.94718773        1      -0.44725800       0.00118084      -1.07867344      -0.30154091      -0.59423137       1.18011868
N        1.53678588       0.85870780       4.38099594        2       0.14052033      -0.46066754       0.20203882       0.28490695       0.67984354       1.25553679
N       -0.05228244       1.80432671       2.00436659        3      -0.26824447       0.59440670      -0.15219049       1.32964694       0.40472230      -1.55734253
4
Lattice="3.128588 0.0 0.0 -1.5642939988088433 2.709436998432005 0.0 0.0 0.0 5.016955" Properties=species:S:1:pos:R:3:spacegroup_kinds:I:1:momenta:R:3:forces:R:3 spacegroup="P 1" unit_cell=conventional occupancy="_JSON {\"0\": {\"Al\": 1}, \"1\": {\"Al\": 1}, \"2\": {\"N\": 1}, \"3\": {\"N\": 1}}" energy=-29.5672550201416 free_energy=-29.5672550201416 stress="0.01291563268750906 0.0017025376437231898 0.003579380689188838 0.0017025376437231898 -0.02585720457136631 -0.005369172897189856 0.003579380689188838 -0.005369172897189856 -0.011435405351221561" pbc="T T T"
Al       1.59598185       0.90138485       2.55101266        0      -0.85003963      -0.64755157      -0.41676289      -0.33522743       0.74370497      -1.26921356
Al      -0.01311799       1.79082859       4.96769656        1      -0.24557023      -0.74327796       1.65595786      -0.18280295      -0.17026776       1.21499753
N        1.52960408       0.86779351       4.41996341        2       0.16413065       0.60763585       0.63654568       0.31887719       0.39321405      -0.09056965
N       -0.00060095       1.87475190       1.90756520        3       0.93147919       0.78319365      -1.87574063       0.19915321      -0.96665156       0.14478579
4
Lattice="3.128588 0.0 0.0 -1.5642939988088433 2.709436998432005 0.0 0.0 0.0 5.016955" Properties=species:S:1:pos:R:3:spacegroup_kinds:I:1:momenta:R:3:forces:R:3 spacegroup="P 1" unit_cell=conventional occupancy="_JSON {\"0\": {\"Al\": 1}, \"1\": {\"Al\": 1}, \"2\": {\"N\": 1}, \"3\": {\"N\": 1}}" energy=-29.406274795532227 free_energy=-29.406274795532227 stress="0.010688751004636288 0.01649830862879753 -0.008164024911820889 0.01649830862879753 -0.009423377923667431 -0.015553927980363369 -0.008164024911820889 -0.015553927980363369 -0.061254072934389114" pbc="T T T"
Al       1.53423929       0.87298461       2.51007454        0      -1.60925344       0.09619224      -1.03262327       0.74608827       1.00298524       0.03482346
Al      -0.01349003       1.78470222       5.05709164        1       0.21561220      -0.04339781       1.72443318       0.02271235       0.40732861      -1.66436875
N        1.55208974       0.92225132       4.42203507        2       0.38659395       0.63935790      -0.93002917       0.04495772      -0.39009652      -0.56986153
N        0.09667395       1.88681817       1.81230436        3       1.00704730      -0.69215237       0.23821927      -0.81375837      -1.02021742       2.19940662
4
Lattice="3.128588 0.0 0.0 -1.5642939988088433 2.709436998432005 0.0 0.0 0.0 5.016955" Properties=species:S:1:pos:R:3:spacegroup_kinds:I:1:momenta:R:3:forces:R:3 spacegroup="P 1" unit_cell=conventional occupancy="_JSON {\"0\": {\"Al\": 1}, \"1\": {\"Al\": 1}, \"2\": {\"N\": 1}, \"3\": {\"N\": 1}}" energy=-29.201906204223633 free_energy=-29.201906204223633 stress="-0.02644110657274723 0.03815557435154915 -0.03138245269656181 0.03815557435154915 -0.004877559840679169 0.0015437284018844366 -0.03138245269656181 0.0015437284018844366 -0.05181994289159775" pbc="T T T"
Al       1.49382404       0.87740193       2.48150488        0      -0.08661647      -0.02748810       0.25595470       2.48428154      -0.46186900       1.22611487
Al      -0.02076737       1.79337852       5.08843294        1       0.00716730       0.60209061      -1.27068280       0.64723217       0.57433480      -2.36004066
N        1.60157221       0.96971684       4.33361321        2       0.49437267       0.53651030      -0.17473350      -0.53882402      -0.70145380       1.74608862
N        0.13924905       1.81421451       1.89535168        3      -0.41492350      -1.11111283       1.18946157      -2.59268951       0.58898830      -0.61216325
4
Lattice="3.128588 0.0 0.0 -1.5642939988088433 2.709436998432005 0.0 0.0 0.0 5.016955" Properties=species:S:1:pos:R:3:spacegroup_kinds:I:1:momenta:R:3:forces:R:3 spacegroup="P 1" unit_cell=conventional occupancy="_JSON {\"0\": {\"Al\": 1}, \"1\": {\"Al\": 1}, \"2\": {\"N\": 1}, \"3\": {\"N\": 1}}" energy=-29.574626922607422 free_energy=-29.574626922607422 stress="-0.023618025705218315 -0.01432124525308609 -0.011127929203212261 -0.01432124525308609 0.01503017544746399 -0.002854652237147093 -0.011127929203212261 -0.002854652237147093 -0.014440478757023811" pbc="T T T"
Al       1.53421963       0.88369269       2.53780578        0       1.55944018       0.36820860       1.55971009       0.29264176      -0.24000448      -0.91367888
Al      -0.00048007       1.82107763       4.98837342        1       1.01688560       0.86374292      -2.47525450       0.94369602       0.52251810       0.78486603
N        1.63583965       0.96584649       4.40663188        2      -0.31021894      -0.52489295       1.27117381      -1.15103841      -0.78907490       0.05687847
N       -0.01177522       1.75252281       1.90648735        3      -2.26610687      -0.70705857      -0.35562942      -0.08529954       0.50656128       0.07193442
4
Lattice="3.128588 0.0 0.0 -1.5642939988088433 2.709436998432005 0.0 0.0 0.0 5.016955" Properties=species:S:1:pos:R:3:spacegroup_kinds:I:1:momenta:R:3:forces:R:3 spacegroup="P 1" unit_cell=conventional occupancy="_JSON {\"0\": {\"Al\": 1}, \"1\": {\"Al\": 1}, \"2\": {\"N\": 1}, \"3\": {\"N\": 1}}" energy=-29.372072219848633 free_energy=-29.372072219848633 stress="-0.005629701539874077 -0.018719378858804703 0.015849484130740166 -0.018719378858804703 -0.032273054122924805 0.017212193459272385 0.015849484130740166 0.017212193459272385 -0.007298070937395096" pbc="T T T"
Al       1.57072834       0.88046441       2.56331973        0      -0.00039291      -0.37629512      -0.57844014      -1.34386504      -0.44065875      -1.50707555
Al       0.05055071       1.86456079       4.94968571        1       0.52727013       0.77034150       1.04960243      -0.49129063      -1.36433661       1.82584763
N        1.58204798       0.88176660       4.44992392        2      -0.27832243      -1.02263390      -0.55459306       0.15003780       1.16376042      -0.85894930
N       -0.12661082       1.75915458       1.88869868        3      -0.24855481       0.62858752       0.08343074       1.68511772       0.64123493       0.54017729
4
Lattice="3.128588 0.0 0.0 -1.5642939988088433 2.709436998432005 0.0 0.0 0.0 5.016955" Properties=species:S:1:pos:R:3:spacegroup_kinds:I:1:momenta:R:3:forces:R:3 spacegroup="P 1" unit_cell=conventional occupancy="_JSON {\"0\": {\"Al\": 1}, \"1\": {\"Al\": 1}, \"2\": {\"N\": 1}, \"3\": {\"N\": 1}}" energy=-29.596923828125 free_energy=-29.596923828125 stress="0.01597655564546585 -0.004506143741309643 0.0060187457129359245 -0.004506143741309643 -0.025499427691102028 -0.004597081802785397 0.0060187457129359245 -0.004597081802785397 -0.010013771243393421" pbc="T T T"
Al       1.53284806       0.86390067       2.51395076        0      -1.59464484      -0.16469604      -1.74991293      -0.27820387       0.89915919      -0.15420546
Al       0.06317842       1.83227865       5.00948383        1       0.38439998      -1.80666575       1.59449939      -0.58708453      -0.41271806       0.16725041
N        1.58572476       0.89623784       4.41422575        2       0.14193178       1.12964912      -0.09119161       0.25704002       0.38076836       0.00228118
N       -0.08152103       1.83862420       1.90381440        3       1.06831309       0.84171269       0.24660506       0.60824829      -0.86720920      -0.01532608
4
Lattice="3.128588 0.0 0.0 -1.5642939988088433 2.709436998432005 0.0 0.0 0.0 5.016955" Properties=species:S:1:pos:R:3:spacegroup_kinds:I:1:momenta:R:3:forces:R:3 spacegroup="P 1" unit_cell=conventional occupancy="_JSON {\"0\": {\"Al\": 1}, \"1\": {\"Al\": 1}, \"2\": {\"N\": 1}, \"3\": {\"N\": 1}}" energy=-29.462553024291992 free_energy=-29.462553024291992 stress="-0.005697266664355993 0.01084949355572462 -0.003906621132045984 0.01084949355572462 -0.019133780151605606 -0.01270320825278759 -0.003906621132045984 -0.01270320825278759 -0.011871504597365856" pbc="T T T"
Al       1.48347331       0.88264396       2.44527930        0      -0.30454485       1.01149459      -0.60004482       0.88393062       0.95768154       1.70777035
Al       0.06164410       1.77681259       5.07306071        1      -0.86715265      -0.75617435       0.43048823      -0.30080634       0.71655232      -1.72280121
N        1.61717709       0.94947182       4.40498425        2       0.38645857       0.04830133       0.18623275      -0.07233995      -0.67485893       0.48910809
N       -0.01486932       1.85626148       1.92266698        3       0.78523895      -0.30362153      -0.01667621      -0.51078439      -0.99937487      -0.47407693
4
Lattice="3.128588 0.0 0.0 -1.5642939988088433 2.709436998432005 0.0 0.0 0.0 5.016955" Properties=species:S:1:pos:R:3:spacegroup_kinds:I:1:momenta:R:3:forces:R:3 spacegroup="P 1" unit_cell=conventional occupancy="_JSON {\"0\": {\"Al\": 1}, \"1\": {\"Al\": 1}, \"2\": {\"N\": 1}, \"3\": {\"N\": 1}}" energy=-29.518747329711914 free_energy=-29.518747329711914 stress="-0.023370999842882156 0.006539932452142239 -0.01609809882938862 0.006539932452142239 0.006697149947285652 -0.00048243749188259244 -0.01609809882938862 -0.00048243749188259244 -0.0221602413803339" pbc="T T T"
Al       1.50607639       0.94974318       2.46463698        0       1.15921308       0.62635189       1.50689905       1.24247658      -0.60704458       1.15697467
Al       0.01335470       1.75088038       5.06242871        1      -0.91112004       0.14825235      -0.88962688       0.51474661       0.69610751      -1.43088448
N        1.62637956       0.90489622       4.42127856        2      -0.14223554      -0.64065024       0.21498396      -0.71771687      -0.51824391      -0.07984881
N        0.02538010       1.82158369       1.88963028        3      -0.10585747      -0.13395393      -0.83225621      -1.03950620       0.42918128       0.35375893
4
Lattice="3.128588 0.0 0.0 -1.5642939988088433 2.709436998432005 0.0 0.0 0.0 5.016955" Properties=species:S:1:pos:R:3:spacegroup_kinds:I:1:momenta:R:3:forces:R:3 spacegroup="P 1" unit_cell=conventional occupancy="_JSON {\"0\": {\"Al\": 1}, \"1\": {\"Al\": 1}, \"2\": {\"N\": 1}, \"3\": {\"N\": 1}}" energy=-29.60500717163086 free_energy=-29.60500717163086 stress="0.0015957995783537626 -0.006785911973565817 -0.0030952109955251217 -0.006785911973565817 0.0017806625692173839 0.0017242826288565993 -0.0030952109955251217 0.0017242826288565993 -0.023114167153835297" pbc="T T T"
Al       1.56693924       0.93861029       2.54470909        0       1.44875328      -0.98943803       1.48437332      -0.01659510      -0.29131436      -1.20302093
Al      -0.01304569       1.78057344       4.99752449        1       0.01689783       1.11024997      -1.70729920       0.38438371       0.02358363       0.50762975
N        1.58384201       0.87104972       4.42155574        2      -0.67927449      -0.02704967      -0.19037144      -0.39236534       0.15177764      -0.39793217
N        0.00122215       1.81989283       1.85992055        3      -0.78637658      -0.09376218       0.41329731       0.02457687       0.11595322       1.09332323
4
Lattice="3.128588 0.0 0.0 -1.5642939988088433 2.709436998432005 0.0 0.0 0.0 5.016955" Properties=species:S:1:pos:R:3:spacegroup_kinds:I:1:momenta:R:3:forces:R:3 spacegroup="P 1" unit_cell=conventional occupancy="_JSON {\"0\": {\"Al\": 1}, \"1\": {\"Al\": 1}, \"2\": {\"N\": 1}, \"3\": {\"N\": 1}}" energy=-29.47020721435547 free_energy=-29.47020721435547 stress="0.003203254658728838 -0.017801504582166672 0.011838383972644806 -0.017801504582166672 -0.04134906455874443 0.007359939161688089 0.011838383972644806 0.007359939161688089 -0.00516033498570323" pbc="T T T"
Al       1.62755628       0.89950079       2.54516750        0       1.04970802      -0.99981835      -0.80202919      -1.41065240       0.15933284      -0.91778874
Al      -0.00757059       1.81703572       4.95606286        1      -0.03758028       0.11959877      -0.16512709      -0.26242742      -0.84351587       1.41445792
N        1.52756234       0.85151202       4.42065486        2      -0.42752145       0.29023031      -0.07965786       0.31765962       0.98894686      -0.00115409
N       -0.06966664       1.84442113       1.93994532        3      -0.58460625       0.58998935       1.04681409       1.35542047      -0.30476379      -0.49551502
4
Lattice="3.128588 0.0 0.0 -1.5642939988088433 2.709436998432005 0.0 0.0 0.0 5.016955" Properties=species:S:1:pos:R:3:spacegroup_kinds:I:1:momenta:R:3:forces:R:3 spacegroup="P 1" unit_cell=conventional occupancy="_JSON {\"0\": {\"Al\": 1}, \"1\": {\"Al\": 1}, \"2\": {\"N\": 1}, \"3\": {\"N\": 1}}" energy=-29.452991485595703 free_energy=-29.452991485595703 stress="-0.01322522945702076 -0.023750094696879387 0.00791149865835905 -0.023750094696879387 -0.04793174937367439 -0.007333208341151476 0.00791149865835905 -0.007333208341151476 0.028633050620555878" pbc="T T T"
Al       1.63184041       0.85684031       2.46693547        0      -0.97589015      -0.55899536      -1.34838388      -1.39010596       1.11026073       1.17303526
Al      -0.02377747       1.82170282       4.98999603        1      -0.28018785       0.45883521       1.28013546      -0.08532343       0.08283245       0.34696978
N        1.52792700       0.92957747       4.44479001        2       0.11446428       0.97873236       0.08012531       0.22036003      -0.17398685       0.05598915
N       -0.04718870       1.83921499       2.00086008        3       1.14161376      -0.87857215      -0.01187687       1.25506949      -1.01910627      -1.57599425
4
Lattice="3.128588 0.0 0.0 -1.5642939988088433 2.709436998432005 0.0 0.0 0.0 5.016955" Properties=species:S:1:pos:R:3:spacegroup_kinds:I:1:momenta:R:3:forces:R:3 spacegroup="P 1" unit_cell=conventional occupancy="_JSON {\"0\": {\"Al\": 1}, \"1\": {\"Al\": 1}, \"2\": {\"N\": 1}, \"3\": {\"N\": 1}}" energy=-29.53631591796875 free_energy=-29.53631591796875 stress="-0.019857585430145264 0.013828929513692856 -0.005717338528484106 0.013828929513692856 -0.0031640706583857536 -0.001670996192842722 -0.005717338528484106 -0.001670996192842722 -0.006260679569095373" pbc="T T T"
Al       1.56291509       0.86348348       2.43836895        0      -1.44558843       0.38889028       0.34075039       0.67285842       0.11609215       1.45909607
Al      -0.01834142       1.83613135       5.05736571        1       0.19731510      -0.00921624       1.04742006       0.06595156       0.15003608      -1.19267404
N        1.54726694       0.95741149       4.47045637        2      -0.01023997       0.05685114       0.14844055       0.09761532      -0.44420910      -0.65174752
N        0.05576967       1.77068664       1.90062729        3       1.25851335      -0.43652516      -1.53661103      -0.83642530       0.17808080       0.38532543
4
Lattice="3.128588 0.0 0.0 -1.5642939988088433 2.709436998432005 0.0 0.0 0.0 5.016955" Properties=species:S:1:pos:R:3:spacegroup_kinds:I:1:momenta:R:3:forces:R:3 spacegroup="P 1" unit_cell=conventional occupancy="_JSON {\"0\": {\"Al\": 1}, \"1\": {\"Al\": 1}, \"2\": {\"N\": 1}, \"3\": {\"N\": 1}}" energy=-29.5310001373291 free_energy=-29.5310001373291 stress="-0.01829412393271923 0.015707623213529587 -0.011607803404331207 0.015707623213529587 0.0031477161683142185 0.0046056825667619705 -0.011607803404331207 0.0046056825667619705 -0.017258640378713608" pbc="T T T"
Al       1.54701076       0.87273543       2.46070916        0       0.71855712      -0.11584414       0.49435382       1.07476497      -0.28505683       1.06925917
Al      -0.01761628       1.84389392       5.05391117        1       0.19346377       0.17720459      -0.69190221       0.23187599      -0.07941654      -1.16825438
N        1.56395352       0.94331125       4.45961400        2       0.32487491      -0.12409480      -0.51346126      -0.11546951      -0.20503718      -0.72920239
N        0.06831352       1.75176772       1.87546338        3      -1.23689575       0.06273437       0.71100964      -1.19117141       0.56951076       0.82819760
4
Lattice="3.128588 0.0 0.0 -1.5642939988088433 2.709436998432005 0.0 0.0 0.0 5.016955" Properties=species:S:1:pos:R:3:spacegroup_kinds:I:1:momenta:R:3:forces:R:3 spacegroup="P 1" unit_cell=conventional occupancy="_JSON {\"0\": {\"Al\": 1}, \"1\": {\"Al\": 1}, \"2\": {\"N\": 1}, \"3\": {\"N\": 1}}" energy=-29.613210678100586 free_energy=-29.613210678100586 stress="-0.00838179886341095 -0.004276667721569538 0.005492800381034613 -0.004276667721569538 -0.013937097042798996 0.0014804432867094874 0.005492800381034613 0.0014804432867094874 0.012475334107875824" pbc="T T T"
Al       1.57767909       0.87033377       2.48321563        0       0.42145914      -0.10085906       0.75449324      -0.50598675       0.14215261       0.64867681
Al       0.00878679       1.84488740       5.00616575        1       0.94842512       0.04829719      -0.67234574      -0.28190944      -0.37569591       0.05942825
N        1.54733741       0.91884310       4.41695263        2      -0.50233559      -0.06173906      -0.86681700       0.26756665       0.16352408       0.34766671
N       -0.02491941       1.77881447       1.96659668        3      -0.86754867       0.11430096       0.78466953       0.52032936       0.07001934      -1.05577135
4
Lattice="3.128588 0.0 0.0 -1.5642939988088433 2.709436998432005 0.0 0.0 0.0 5.016955" Properties=species:S:1:pos:R:3:spacegroup_kinds:I:1:momenta:R:3:forces:R:3 spacegroup="P 1" unit_cell=conventional occupancy="_JSON {\"0\": {\"Al\": 1}, \"1\": {\"Al\": 1}, \"2\": {\"N\": 1}, \"3\": {\"N\": 1}}" energy=-29.55784034729004 free_energy=-29.55784034729004 stress="-0.01636386290192604 -0.0029474140610545874 0.012903745286166668 -0.0029474140610545874 -0.006207499653100967 0.0015375636285170913 0.012903745286166668 0.0015375636285170913 -0.002714591333642602" pbc="T T T"
Al       1.59068815       0.88023433       2.52274583        0      -0.41625574       0.17887088       0.33160769      -0.90884149      -0.14030547      -0.36867940
Al       0.01872291       1.83477379       4.97781994        1       0.14974033      -0.20763055      -0.17578435      -0.72829825      -0.10046294       0.72652757
N        1.52039171       0.92489990       4.39464373        2       0.19754310       0.25939904       0.47781757       0.72476172      -0.09605107       0.71574366
N       -0.04216866       1.77342023       1.96745701        3       0.06897228      -0.23063938      -0.63364085       0.91237795       0.33681944      -1.07359207
4
Lattice="3.128588 0.0 0.0 -1.5642939988088433 2.709436998432005 0.0 0.0 0.0 5.016955" Properties=species:S:1:pos:R:3:spacegroup_kinds:I:1:momenta:R:3:forces:R:3 spacegroup="P 1" unit_cell=conventional occupancy="_JSON {\"0\": {\"Al\": 1}, \"1\": {\"Al\": 1}, \"2\": {\"N\": 1}, \"3\": {\"N\": 1}}" energy=-29.621112823486328 free_energy=-29.621112823486328 stress="-0.021501025184988976 0.005276503972709179 -0.003267495194450021 0.005276503972709179 0.010657498612999916 0.0019249425968155265 -0.003267495194450021 0.0019249425968155265 -0.0015896972035989165" pbc="T T T"
Al       1.54767650       0.89587765       2.50832857        0      -0.85810033       0.46896468      -1.00002927       0.39160460      -0.39029208      -0.15032420
Al       0.00665804       1.82067516       5.00342496        1      -0.72966912      -0.11082699       1.46536665      -0.00949739       0.22696909       0.34863064
N        1.57185926       0.94293295       4.45440723        2       0.62349832      -0.37686476       0.64593215      -0.01969951      -0.43335280      -0.83890271
N        0.01256032       1.75229419       1.88600532        3       0.96427109       0.01872708      -1.11126947      -0.36240768       0.59667581       0.64059609
4
Lattice="3.128588 0.0 0.0 -1.5642939988088433 2.709436998432005 0.0 0.0 0.0 5.016955" Properties=species:S:1:pos:R:3:spacegroup_kinds:I:1:momenta:R:3:forces:R:3 spacegroup="P 1" unit_cell=conventional occupancy="_JSON {\"0\": {\"Al\": 1}, \"1\": {\"Al\": 1}, \"2\": {\"N\": 1}, \"3\": {\"N\": 1}}" energy=-29.520854949951172 free_energy=-29.520854949951172 stress="-0.014047292061150074 0.011820821091532707 -0.014255615882575512 0.011820821091532707 -0.0056147268041968346 0.009361515752971172 -0.014255615882575512 0.009361515752971172 -0.0195709727704525" pbc="T T T"
Al       1.52999428       0.91403917       2.46474574        0       0.09545060      -0.23101301      -1.18071333       1.21875191      -0.63577271       0.99289781
Al      -0.00890652       1.82180731       5.05208965        1       0.31216861      -0.10747515       0.45537716       0.39472690      -0.38378417      -1.12710357
N        1.59437708       0.88605555       4.45928985        2      -0.04798952      -0.53350278      -0.20523350      -0.40810442       0.35578942      -0.79021430
N        0.05384449       1.77207221       1.87144998        3      -0.35962970       0.87199095       0.93056970      -1.20537424       0.66376752       0.92441988
4
Lattice="3.128588 0.0 0.0 -1.5642939988088433 2.709436998432005 0.0 0.0 0.0 5.016955" Properties=species:S:1:pos:R:3:spacegroup_kinds:I:1:momenta:R:3:forces:R:3 spacegroup="P 1" unit_cell=conventional occupancy="_JSON {\"0\": {\"Al\": 1}, \"1\": {\"Al\": 1}, \"2\": {\"N\": 1}, \"3\": {\"N\": 1}}" energy=-29.61878776550293 free_energy=-29.61878776550293 stress="0.01011755969375372 -0.001822085352614522 -0.0018730220617726445 -0.001822085352614522 -0.024783117696642876 0.004591197241097689 -0.0018730220617726445 0.004591197241097689 2.642506115080323e-05" pbc="T T T"
Al       1.53818032       0.90928017       2.47247634        0       0.23228521      -0.27447260       1.41733328       0.21201214       0.18702349       0.85530704
Al       0.01802691       1.81430740       5.03506515        1       0.60360797      -0.42930249      -1.11140754       0.03760234      -0.69444275      -0.55142915
N        1.59518016       0.85128049       4.42414641        2       0.09084654       0.02420667      -0.77345529      -0.19470318       0.84070718       0.01228893
N       -0.01452982       1.83034442       1.92467359        3      -0.92673973       0.67956841       0.46752951      -0.05491134      -0.33328801      -0.31616676
4
Lattice="3.128588 0.0 0.0 -1.5642939988088433 2.709436998432005 0.0 0.0 0.0 5.016955" Properties=species:S:1:pos:R:3:spacegroup_kinds:I:1:momenta:R:3:forces:R:3 spacegroup="P 1" unit_cell=conventional occupancy="_JSON {\"0\": {\"Al\": 1}, \"1\": {\"Al\": 1}, \"2\": {\"N\": 1}, \"3\": {\"N\": 1}}" energy=-29.623743057250977 free_energy=-29.623743057250977 stress="0.0043003796599805355 -0.008672390133142471 0.002881825203076005 -0.008672390133142471 -0.006943749263882637 -0.0044344887137413025 0.002881825203076005 -0.0044344887137413025 -0.01483894046396017" pbc="T T T"
Al       1.54321202       0.89379626       2.53645985        0      -0.00705443      -0.41529053       0.79444917      -0.25250173       0.39302781      -0.87834412
Al       0.03580899       1.79893951       4.98957806        1       0.09337955      -0.29525088      -0.61191925      -0.16601157       0.14058118       0.62744927
N        1.59619762       0.90645092       4.40111845        2      -0.02189824       1.09350629       0.27120873      -0.08899567      -0.09593835       0.34911251
N       -0.05911259       1.83464209       1.91219260        3      -0.06442689      -0.38296491      -0.45373867       0.50750899      -0.43767053      -0.09821783
