4
Lattice="3.128588 0.0 0.0 -1.5642939988088433 2.709436998432005 0.0 0.0 0.0 5.016955" Properties=species:S:1:pos:R:3:spacegroup_kinds:I:1:forces:R:3 spacegroup="P 1" unit_cell=conventional occupancy="_JSON {\"0\": {\"Al\": 1}, \"1\": {\"Al\": 1}, \"2\": {\"N\": 1}, \"3\": {\"N\": 1}}" energy=-29.673717498779297 free_energy=-29.673717498779297 stress="-0.0022253389470279217 -1.3961420108898892e-06 -8.307866394829944e-09 -1.3961420108898892e-06 -0.0022276295349001884 -6.371003280492005e-08 -8.307866394829944e-09 -6.371003280492005e-08 -0.005453648045659065" pbc="T T T"
Al       1.56429556       0.90314476       2.50490041        0      -0.00003356       0.00002104       0.00553191
Al      -0.00000156       1.80629224       5.01337791        1       0.00003486      -0.00001952       0.00552488
N        1.56429556       0.90314476       4.41849749        2      -0.00003623       0.00002029      -0.00553066
N       -0.00000156       1.80629224       1.91001999        3       0.00003488      -0.00002164      -0.00552604
