4
Lattice="3.128588 0.0 0.0 -1.5642939988088433 2.709436998432005 0.0 0.0 0.0 5.016955" Properties=species:S:1:pos:R:3:spacegroup_kinds:I:1:momenta:R:3:forces:R:3 spacegroup="P 1" unit_cell=conventional occupancy="_JSON {\"0\": {\"Al\": 1}, \"1\": {\"Al\": 1}, \"2\": {\"N\": 1}, \"3\": {\"N\": 1}}" energy=-29.623743057250977 free_energy=-29.623743057250977 stress="0.004300360567867756 -0.00867264810949564 0.0028819856233894825 -0.00867264810949564 -0.006943480111658573 -0.004434531554579735 0.0028819856233894825 -0.004434531554579735 -0.01483909785747528" pbc="T T T"
Al       1.54321206       0.89379623       2.53645986        0      -0.00705426      -0.41529105       0.79444736      -0.25250277       0.39302844      -0.87834418
Al       0.03580899       1.79893951       4.98957806        1       0.09337920      -0.29525131      -0.61191789      -0.16601154       0.14058156       0.62745064
N        1.59619757       0.90645097       4.40111845        2      -0.02189816       1.09350673       0.27120878      -0.08899789      -0.09593719       0.34911138
N       -0.05911261       1.83464205       1.91219263        3      -0.06442679      -0.38296440      -0.45373829       0.50751221      -0.43767267      -0.09821820
