4
Lattice="3.128588 0.0 0.0 -1.5642939988088433 2.709436998432005 0.0 0.0 0.0 5.016955" Properties=species:S:1:pos:R:3:spacegroup_kinds:I:1:momenta:R:3:forces:R:3 spacegroup="P 1" unit_cell=conventional occupancy="_JSON {\"0\": {\"Al\": 1}, \"1\": {\"Al\": 1}, \"2\": {\"N\": 1}, \"3\": {\"N\": 1}}" energy=-29.673717498779297 free_energy=-29.673717498779297 stress="-0.0022251971531659365 -1.4557817848981358e-06 -5.89957132035579e-08 -1.4557817848981358e-06 -0.002227400429546833 -6.84032528397438e-08 -5.89957132035579e-08 -6.84032528397438e-08 -0.005453669931739569" pbc="T T T"
Al       1.56429556       0.90314476       2.50490041        0       0.68448204       0.53670047       0.91071479      -0.00003421       0.00002064       0.00553185
Al      -0.00000156       1.80629224       5.01337791        1       0.31075784       0.39520501      -1.87833745       0.00003584      -0.00001958       0.00552413
N        1.56429556       0.90314476       4.41849749        2      -0.23293981      -0.79739853      -0.40745139      -0.00003765       0.00002080      -0.00553054
N       -0.00000156       1.80629224       1.91001999        3      -0.76230006      -0.13450696       1.37507406       0.00003599      -0.00002176      -0.00552488
4
Lattice="3.128588 0.0 0.0 -1.5642939988088433 2.709436998432005 0.0 0.0 0.0 5.016955" Properties=species:S:1:pos:R:3:spacegroup_kinds:I:1:momenta:R:3:forces:R:3 spacegroup="P 1" unit_cell=conventional occupancy="_JSON {\"0\": {\"Al\": 1}, \"1\": {\"Al\": 1}, \"2\": {\"N\": 1}, \"3\": {\"N\": 1}}" energy=-29.43359375 free_energy=-29.43359375 stress="-0.01377356518059969 -0.01644638553261757 0.012948768213391304 -0.01644638553261757 -0.023968661203980446 0.009969736449420452 0.012948768213391304 0.009969736449420452 -0.012059370055794716" pbc="T T T"
Al       1.60246141       0.92231283       2.54150849        0       0.57498212      -0.13492016       1.02882487      -1.31301355      -0.49033535      -0.87831366
Al       0.00328788       1.81111139       4.94718774        1      -0.44725799       0.00118040      -1.07867333      -0.30154052      -0.59423321       1.18011844
N        1.53678588       0.85870780       4.38099594        2       0.14052031      -0.46066709       0.20203863       0.28490698       0.67984569       1.25553524
N       -0.05228246       1.80432672       2.00436660        3      -0.26824442       0.59440688      -0.15219018       1.32964706       0.40472290      -1.55733991
4
Lattice="3.128588 0.0 0.0 -1.5642939988088433 2.709436998432005 0.0 0.0 0.0 5.016955" Properties=species:S:1:pos:R:3:spacegroup_kinds:I:1:momenta:R:3:forces:R:3 spacegroup="P 1" unit_cell=conventional occupancy="_JSON {\"0\": {\"Al\": 1}, \"1\": {\"Al\": 1}, \"2\": {\"N\": 1}, \"3\": {\"N\": 1}}" energy=-29.567256927490234 free_energy=-29.567256927490234 stress="0.012915710918605328 0.0017024799017235637 0.0035793252754956484 0.0017024799017235637 -0.02585698291659355 -0.005369171965867281 0.0035793252754956484 -0.005369171965867281 -0.01143528800457716" pbc="T T T"
Al       1.59598186       0.90138485       2.55101265        0      -0.85003983      -0.64755159      -0.41676300      -0.33522639       0.74370426      -1.26921177
Al      -0.01311800       1.79082858       4.96769657        1      -0.24557030      -0.74327761       1.65595781      -0.18280101      -0.17026791       1.21499622
N        1.52960409       0.86779351       4.41996342        2       0.16413073       0.60763564       0.63654588       0.31887555       0.39321420      -0.09056962
N       -0.00060096       1.87475191       1.90756521        3       0.93147943       0.78319359      -1.87574066       0.19915187      -0.96665061       0.14478497
4
Lattice="3.128588 0.0 0.0 -1.5642939988088433 2.709436998432005 0.0 0.0 0.0 5.016955" Properties=species:S:1:pos:R:3:spacegroup_kinds:I:1:momenta:R:3:forces:R:3 spacegroup="P 1" unit_cell=conventional occupancy="_JSON {\"0\": {\"Al\": 1}, \"1\": {\"Al\": 1}, \"2\": {\"N\": 1}, \"3\": {\"N\": 1}}" energy=-29.406272888183594 free_energy=-29.406272888183594 stress="0.01068852934986353 0.01649819128215313 -0.008163987658917904 0.01649819128215313 -0.00942328292876482 -0.015553969889879227 -0.008163987658917904 -0.015553969889879227 -0.06125413998961449" pbc="T T T"
Al       1.53423928       0.87298461       2.51007452        0      -1.60925417       0.09619222      -1.03262347       0.74608886       1.00298595       0.03482307
Al      -0.01349003       1.78470223       5.05709164        1       0.21561252      -0.04339769       1.72443342       0.02271003       0.40733010      -1.66436803
N        1.55208974       0.92225131       4.42203510        2       0.38659382       0.63935794      -0.93002914       0.04496022      -0.39009747      -0.56986159
N        0.09667398       1.88681816       1.81230439        3       1.00704786      -0.69215244       0.23821917      -0.81375897      -1.02021885       2.19940615
4
Lattice="3.128588 0.0 0.0 -1.5642939988088433 2.709436998432005 0.0 0.0 0.0 5.016955" Properties=species:S:1:pos:R:3:spacegroup_kinds:I:1:momenta:R:3:forces:R:3 spacegroup="P 1" unit_cell=conventional occupancy="_JSON {\"0\": {\"Al\": 1}, \"1\": {\"Al\": 1}, \"2\": {\"N\": 1}, \"3\": {\"N\": 1}}" energy=-29.201902389526367 free_energy=-29.201902389526367 stress="-0.026441145688295364 0.038155682384967804 -0.03138245642185211 0.038155682384967804 -0.0048775458708405495 0.0015438058180734515 -0.03138245642185211 0.0015438058180734515 -0.05181988701224327" pbc="T T T"
Al       1.49382401       0.87740193       2.48150488        0      -0.08661619      -0.02748836       0.25595535       2.48428297      -0.46186799       1.22611618
Al      -0.02076736       1.79337853       5.08843297        1       0.00716717       0.60209052      -1.27068220       0.64723182       0.57433498      -2.36003995
N        1.60157222       0.96971684       4.33361320        2       0.49437294       0.53651043      -0.17473400      -0.53882521      -0.70145380       1.74608779
N        0.13924908       1.81421452       1.89535165        3      -0.41492383      -1.11111251       1.18946089      -2.59268951       0.58898652      -0.61216450
4
Lattice="3.128588 0.0 0.0 -1.5642939988088433 2.709436998432005 0.0 0.0 0.0 5.016955" Properties=species:S:1:pos:R:3:spacegroup_kinds:I:1:momenta:R:3:forces:R:3 spacegroup="P 1" unit_cell=conventional occupancy="_JSON {\"0\": {\"Al\": 1}, \"1\": {\"Al\": 1}, \"2\": {\"N\": 1}, \"3\": {\"N\": 1}}" energy=-29.574628829956055 free_energy=-29.574628829956055 stress="-0.023617880418896675 -0.014321239665150642 -0.011127949692308903 -0.014321239665150642 0.015030031092464924 -0.0028546180110424757 -0.011127949692308903 -0.0028546180110424757 -0.01444039773195982" pbc="T T T"
Al       1.53421962       0.88369268       2.53780580        0       1.55944064       0.36820840       1.55970991       0.29264402      -0.24000275      -0.91367501
Al      -0.00048006       1.82107764       4.98837346        1       1.01688563       0.86374271      -2.47525432       0.94369531       0.52251470       0.78486180
N        1.63583967       0.96584651       4.40663183        2      -0.31021895      -0.52489255       1.27117399      -1.15103722      -0.78907168       0.05687752
N       -0.01177522       1.75252283       1.90648728        3      -2.26610727      -0.70705853      -0.35562957      -0.08530203       0.50655973       0.07193550
4
Lattice="3.128588 0.0 0.0 -1.5642939988088433 2.709436998432005 0.0 0.0 0.0 5.016955" Properties=species:S:1:pos:R:3:spacegroup_kinds:I:1:momenta:R:3:forces:R:3 spacegroup="P 1" unit_cell=conventional occupancy="_JSON {\"0\": {\"Al\": 1}, \"1\": {\"Al\": 1}, \"2\": {\"N\": 1}, \"3\": {\"N\": 1}}" energy=-29.3720703125 free_energy=-29.3720703125 stress="-0.0056295390240848064 -0.01871952973306179 0.0158494021743536 -0.01871952973306179 -0.03227274492383003 0.017212171107530594 0.0158494021743536 0.017212171107530594 -0.007298295386135578" pbc="T T T"
Al       1.57072836       0.88046439       2.56331974        0      -0.00039210      -0.37629494      -0.57844064      -1.34386241      -0.44065517      -1.50707972
Al       0.05055071       1.86456080       4.94968573        1       0.52727024       0.77034200       1.04960132      -0.49128711      -1.36434102       1.82584882
N        1.58204801       0.88176663       4.44992391        2      -0.27832255      -1.02263424      -0.55459248       0.15003459       1.16376376      -0.85894907
N       -0.12661087       1.75915459       1.88869863        3      -0.24855553       0.62858723       0.08343186       1.68511522       0.64123261       0.54017961
4
Lattice="3.128588 0.0 0.0 -1.5642939988088433 2.709436998432005 0.0 0.0 0.0 5.016955" Properties=species:S:1:pos:R:3:spacegroup_kinds:I:1:momenta:R:3:forces:R:3 spacegroup="P 1" unit_cell=conventional occupancy="_JSON {\"0\": {\"Al\": 1}, \"1\": {\"Al\": 1}, \"2\": {\"N\": 1}, \"3\": {\"N\": 1}}" energy=-29.596925735473633 free_energy=-29.596925735473633 stress="0.015976376831531525 -0.004506019409745932 0.0060185762122273445 -0.004506019409745932 -0.02549929916858673 -0.0045971074141561985 0.0060185762122273445 -0.0045971074141561985 -0.01001406367868185" pbc="T T T"
Al       1.53284809       0.86390065       2.51395075        0      -1.59464498      -0.16469613      -1.74991333      -0.27820528       0.89915764      -0.15420690
Al       0.06317842       1.83227868       5.00948380        1       0.38440008      -1.80666575       1.59449849      -0.58708441      -0.41271746       0.16725241
N        1.58572477       0.89623785       4.41422579        2       0.14193158       1.12964912      -0.09119135       0.25704080       0.38076770       0.00228076
N       -0.08152109       1.83862420       1.90381446        3       1.06831333       0.84171278       0.24660623       0.60824889      -0.86720788      -0.01532580
4
Lattice="3.128588 0.0 0.0 -1.5642939988088433 2.709436998432005 0.0 0.0 0.0 5.016955" Properties=species:S:1:pos:R:3:spacegroup_kinds:I:1:momenta:R:3:forces:R:3 spacegroup="P 1" unit_cell=conventional occupancy="_JSON {\"0\": {\"Al\": 1}, \"1\": {\"Al\": 1}, \"2\": {\"N\": 1}, \"3\": {\"N\": 1}}" energy=-29.462553024291992 free_energy=-29.462553024291992 stress="-0.005697266664355993 0.01084944512695074 -0.003906623926013708 0.01084944512695074 -0.019134052097797394 -0.012703180313110352 -0.003906623926013708 -0.012703180313110352 -0.01187136396765709" pbc="T T T"
Al       1.48347332       0.88264396       2.44527930        0      -0.30454556       1.01149547      -0.60004488       0.88393039       0.95768446       1.70777106
Al       0.06164411       1.77681263       5.07306067        1      -0.86715240      -0.75617418       0.43048886      -0.30080521       0.71655226      -1.72280025
N        1.61717707       0.94947181       4.40498429        2       0.38645837       0.04830092       0.18623290      -0.07234080      -0.67485970       0.48910651
N       -0.01486933       1.85626145       1.92266707        3       0.78523961      -0.30362225      -0.01667683      -0.51078439      -0.99937725      -0.47407740
4
Lattice="3.128588 0.0 0.0 -1.5642939988088433 2.709436998432005 0.0 0.0 0.0 5.016955" Properties=species:S:1:pos:R:3:spacegroup_kinds:I:1:momenta:R:3:forces:R:3 spacegroup="P 1" unit_cell=conventional occupancy="_JSON {\"0\": {\"Al\": 1}, \"1\": {\"Al\": 1}, \"2\": {\"N\": 1}, \"3\": {\"N\": 1}}" energy=-29.518749237060547 free_energy=-29.518749237060547 stress="-0.02337055839598179 0.006540101952850819 -0.016098259016871452 0.006540101952850819 0.006697431672364473 -0.00048232745029963553 -0.016098259016871452 -0.00048232745029963553 -0.022161217406392097" pbc="T T T"
Al       1.50607639       0.94974319       2.46463697        0       1.15921333       0.62635177       1.50689894       1.24247563      -0.60704625       1.15697336
Al       0.01335471       1.75088042       5.06242872        1      -0.91112053       0.14825211      -0.88962545       0.51474571       0.69610620      -1.43089128
N        1.62637955       0.90489618       4.42127858        2      -0.14223495      -0.64065012       0.21498364      -0.71771741      -0.51824117      -0.07984693
N        0.02538011       1.82158363       1.88963028        3      -0.10585784      -0.13395379      -0.83225719      -1.03950369       0.42918116       0.35376519
4
Lattice="3.128588 0.0 0.0 -1.5642939988088433 2.709436998432005 0.0 0.0 0.0 5.016955" Properties=species:S:1:pos:R:3:spacegroup_kinds:I:1:momenta:R:3:forces:R:3 spacegroup="P 1" unit_cell=conventional occupancy="_JSON {\"0\": {\"Al\": 1}, \"1\": {\"Al\": 1}, \"2\": {\"N\": 1}, \"3\": {\"N\": 1}}" energy=-29.605009078979492 free_energy=-29.605009078979492 stress="0.001595676294527948 -0.006785839796066284 -0.003095511579886079 -0.006785839796066284 0.0017804624512791634 0.0017242906615138054 -0.003095511579886079 0.0017242906615138054 -0.023113789036870003" pbc="T T T"
Al       1.56693927       0.93861028       2.54470909        0       1.44875340      -0.98943850       1.48437345      -0.01659230      -0.29131603      -1.20300746
Al      -0.01304571       1.78057346       4.99752455        1       0.01689766       1.11024927      -1.70729884       0.38438758       0.02358363       0.50760472
N        1.58384205       0.87104973       4.42155572        2      -0.67927428      -0.02704899      -0.19037175      -0.39236939       0.15177760      -0.39792454
N        0.00122211       1.81989281       1.85992050        3      -0.78637678      -0.09376181       0.41329710       0.02457420       0.11595498       1.09332740
4
Lattice="3.128588 0.0 0.0 -1.5642939988088433 2.709436998432005 0.0 0.0 0.0 5.016955" Properties=species:S:1:pos:R:3:spacegroup_kinds:I:1:momenta:R:3:forces:R:3 spacegroup="P 1" unit_cell=conventional occupancy="_JSON {\"0\": {\"Al\": 1}, \"1\": {\"Al\": 1}, \"2\": {\"N\": 1}, \"3\": {\"N\": 1}}" energy=-29.470203399658203 free_energy=-29.470203399658203 stress="0.00320335547439754 -0.017801782116293907 0.011838318780064583 -0.017801782116293907 -0.04134906828403473 0.007359673269093037 0.011838318780064583 0.007359673269093037 -0.005160211585462093" pbc="T T T"
Al       1.62755629       0.89950075       2.54516750        0       1.04970798      -0.99981875      -0.80202940      -1.41064155       0.15933540      -0.91779184
Al      -0.00757059       1.81703572       4.95606289        1      -0.03757934       0.11959912      -0.16512823      -0.26242599      -0.84351408       1.41445923
N        1.52756236       0.85151207       4.42065484        2      -0.42752230       0.29023008      -0.07965740       0.31765544       0.98894536      -0.00115498
N       -0.06966667       1.84442116       1.93994531        3      -0.58460639       0.58998956       1.04681508       1.35541201      -0.30476677      -0.49551243
4
Lattice="3.128588 0.0 0.0 -1.5642939988088433 2.709436998432005 0.0 0.0 0.0 5.016955" Properties=species:S:1:pos:R:3:spacegroup_kinds:I:1:momenta:R:3:forces:R:3 spacegroup="P 1" unit_cell=conventional occupancy="_JSON {\"0\": {\"Al\": 1}, \"1\": {\"Al\": 1}, \"2\": {\"N\": 1}, \"3\": {\"N\": 1}}" energy=-29.452985763549805 free_energy=-29.452985763549805 stress="-0.013224794529378414 -0.02375008910894394 0.007911395281553268 -0.02375008910894394 -0.04793190583586693 -0.0073332530446350574 0.007911395281553268 -0.0073332530446350574 0.02863292582333088" pbc="T T T"
Al       1.63184043       0.85684027       2.46693548        0      -0.97589061      -0.55899524      -1.34838340      -1.39010692       1.11026454       1.17303514
Al      -0.02377744       1.82170284       4.98999601        1      -0.28018794       0.45883559       1.28013449      -0.08532332       0.08283256       0.34697732
N        1.52792696       0.92957749       4.44479004        2       0.11446429       0.97873202       0.08012569       0.22036014      -0.17398585       0.05598904
N       -0.04718874       1.83921501       2.00086012        3       1.14161422      -0.87857239      -0.01187672       1.25506997      -1.01911128      -1.57600176
4
Lattice="3.128588 0.0 0.0 -1.5642939988088433 2.709436998432005 0.0 0.0 0.0 5.016955" Properties=species:S:1:pos:R:3:spacegroup_kinds:I:1:momenta:R:3:forces:R:3 spacegroup="P 1" unit_cell=conventional occupancy="_JSON {\"0\": {\"Al\": 1}, \"1\": {\"Al\": 1}, \"2\": {\"N\": 1}, \"3\": {\"N\": 1}}" energy=-29.536319732666016 free_energy=-29.536319732666016 stress="-0.019857443869113922 0.013828812167048454 -0.005717419553548098 0.013828812167048454 -0.003164134919643402 -0.0016709374031051993 -0.005717419553548098 -0.0016709374031051993 -0.0062603093683719635" pbc="T T T"
Al       1.56291508       0.86348348       2.43836897        0      -1.44558902       0.38889115       0.34074981       0.67285824       0.11609451       1.45909202
Al      -0.01834141       1.83613140       5.05736568        1       0.19731476      -0.00921551       1.04742057       0.06595215       0.15003398      -1.19266939
N        1.54726694       0.95741145       4.47045642        2      -0.01023976       0.05685044       0.14844089       0.09761369      -0.44420797      -0.65174401
N        0.05576968       1.77068660       1.90062732        3       1.25851400      -0.43652613      -1.53661123      -0.83642435       0.17807934       0.38532108
4
Lattice="3.128588 0.0 0.0 -1.5642939988088433 2.709436998432005 0.0 0.0 0.0 5.016955" Properties=species:S:1:pos:R:3:spacegroup_kinds:I:1:momenta:R:3:forces:R:3 spacegroup="P 1" unit_cell=conventional occupancy="_JSON {\"0\": {\"Al\": 1}, \"1\": {\"Al\": 1}, \"2\": {\"N\": 1}, \"3\": {\"N\": 1}}" energy=-29.531002044677734 free_energy=-29.531002044677734 stress="-0.018294084817171097 0.015707654878497124 -0.01160772331058979 0.015707654878497124 0.003148122690618038 0.004605675116181374 -0.01160772331058979 0.004605675116181374 -0.017258785665035248" pbc="T T T"
Al       1.54701074       0.87273544       2.46070915        0       0.71855732      -0.11584416       0.49435398       1.07476544      -0.28505537       1.06925511
Al      -0.01761628       1.84389396       5.05391118        1       0.19346403       0.17720371      -0.69190154       0.23187768      -0.07941981      -1.16825199
N        1.56395352       0.94331121       4.45961403        2       0.32487476      -0.12409393      -0.51346175      -0.11547091      -0.20503315      -0.72920191
N        0.06831354       1.75176765       1.87546337        3      -1.23689609       0.06273430       0.71100935      -1.19117224       0.56950831       0.82819891
4
Lattice="3.128588 0.0 0.0 -1.5642939988088433 2.709436998432005 0.0 0.0 0.0 5.016955" Properties=species:S:1:pos:R:3:spacegroup_kinds:I:1:momenta:R:3:forces:R:3 spacegroup="P 1" unit_cell=conventional occupancy="_JSON {\"0\": {\"Al\": 1}, \"1\": {\"Al\": 1}, \"2\": {\"N\": 1}, \"3\": {\"N\": 1}}" energy=-29.61321258544922 free_energy=-29.61321258544922 stress="-0.008381552062928677 -0.004276694729924202 0.005492857191711664 -0.004276694729924202 -0.01393712218850851 0.0014804642414674163 0.005492857191711664 0.0014804642414674163 0.012475480325520039" pbc="T T T"
Al       1.57767910       0.87033375       2.48321564        0       0.42145947      -0.10086012       0.75449310      -0.50598723       0.14215392       0.64867592
Al       0.00878680       1.84488740       5.00616579        1       0.94842522       0.04829646      -0.67234564      -0.28191030      -0.37569731       0.05942934
N        1.54733740       0.91884314       4.41695260        2      -0.50233557      -0.06173828      -0.86681742       0.26756734       0.16352507       0.34766647
N       -0.02491944       1.77881443       1.96659667        3      -0.86754909       0.11430187       0.78467002       0.52033007       0.07001827      -1.05577135
4
Lattice="3.128588 0.0 0.0 -1.5642939988088433 2.709436998432005 0.0 0.0 0.0 5.016955" Properties=species:S:1:pos:R:3:spacegroup_kinds:I:1:momenta:R:3:forces:R:3 spacegroup="P 1" unit_cell=conventional occupancy="_JSON {\"0\": {\"Al\": 1}, \"1\": {\"Al\": 1}, \"2\": {\"N\": 1}, \"3\": {\"N\": 1}}" energy=-29.557838439941406 free_energy=-29.557838439941406 stress="-0.016363607719540596 -0.0029476438648998737 0.012903878465294838 -0.0029476438648998737 -0.006207707338035107 0.0015376227675005794 0.012903878465294838 0.0015376227675005794 -0.0027150958776474" pbc="T T T"
Al       1.59068816       0.88023428       2.52274582        0      -0.41625647       0.17887097       0.33160743      -0.90884393      -0.14031278      -0.36868185
Al       0.01872291       1.83477377       4.97781995        1       0.14974011      -0.20763043      -0.17578466      -0.72829610      -0.10046140       0.72653461
N        1.52039172       0.92489998       4.39464373        2       0.19754338       0.25939881       0.47781796       0.72475845      -0.09605105       0.71574062
N       -0.04216869       1.77342024       1.96745705        3       0.06897300      -0.23063941      -0.63364072       0.91238177       0.33682549      -1.07359338
4
Lattice="3.128588 0.0 0.0 -1.5642939988088433 2.709436998432005 0.0 0.0 0.0 5.016955" Properties=species:S:1:pos:R:3:spacegroup_kinds:I:1:momenta:R:3:forces:R:3 spacegroup="P 1" unit_cell=conventional occupancy="_JSON {\"0\": {\"Al\": 1}, \"1\": {\"Al\": 1}, \"2\": {\"N\": 1}, \"3\": {\"N\": 1}}" energy=-29.621110916137695 free_energy=-29.621110916137695 stress="-0.021500980481505394 0.005276544950902462 -0.0032674174290150404 0.005276544950902462 0.01065773144364357 0.0019249384058639407 -0.0032674174290150404 0.0019249384058639407 -0.0015898485435172915" pbc="T T T"
Al       1.54767649       0.89587761       2.50832858        0      -0.85810052       0.46896489      -1.00002912       0.39160579      -0.39029253      -0.15032715
Al       0.00665803       1.82067516       5.00342498        1      -0.72966935      -0.11082598       1.46536671      -0.00949983       0.22697176       0.34863168
N        1.57185930       0.94293298       4.45440723        2       0.62349836      -0.37686584       0.64593229      -0.01969779      -0.43335462      -0.83890152
N        0.01256035       1.75229419       1.88600534        3       0.96427154       0.01872690      -1.11126994      -0.36240828       0.59667552       0.64059657
4
Lattice="3.128588 0.0 0.0 -1.5642939988088433 2.709436998432005 0.0 0.0 0.0 5.016955" Properties=species:S:1:pos:R:3:spacegroup_kinds:I:1:momenta:R:3:forces:R:3 spacegroup="P 1" unit_cell=conventional occupancy="_JSON {\"0\": {\"Al\": 1}, \"1\": {\"Al\": 1}, \"2\": {\"N\": 1}, \"3\": {\"N\": 1}}" energy=-29.520856857299805 free_energy=-29.520856857299805 stress="-0.014047496020793915 0.011821048334240913 -0.014255604706704617 0.011821048334240913 -0.0056147645227611065 0.009361499920487404 -0.014255604706704617 0.009361499920487404 -0.019571028649806976" pbc="T T T"
Al       1.52999427       0.91403914       2.46474576        0       0.09545123      -0.23101270      -1.18071270       1.21875489      -0.63577235       0.99290335
Al      -0.00890654       1.82180735       5.05208963        1       0.31216869      -0.10747455       0.45537610       0.39472795      -0.38378546      -1.12710404
N        1.59437711       0.88605550       4.45928989        2      -0.04798981      -0.53350335      -0.20523323      -0.40810528       0.35579038      -0.79021710
N        0.05384453       1.77207219       1.87144997        3      -0.35963014       0.87199062       0.93056984      -1.20537758       0.66376758       0.92441797
4
Lattice="3.128588 0.0 0.0 -1.5642939988088433 2.709436998432005 0.0 0.0 0.0 5.016955" Properties=species:S:1:pos:R:3:spacegroup_kinds:I:1:momenta:R:3:forces:R:3 spacegroup="P 1" unit_cell=conventional occupancy="_JSON {\"0\": {\"Al\": 1}, \"1\": {\"Al\": 1}, \"2\": {\"N\": 1}, \"3\": {\"N\": 1}}" energy=-29.618785858154297 free_energy=-29.618785858154297 stress="0.010117569006979465 -0.0018220605561509728 -0.0018731376621872187 -0.0018220605561509728 -0.024783197790384293 0.004591142758727074 -0.0018731376621872187 0.004591142758727074 2.650915484991856e-05" pbc="T T T"
Al       1.53818033       0.90928016       2.47247639        0       0.23228582      -0.27447243       1.41733351       0.21200866       0.18702254       0.85530198
Al       0.01802691       1.81430744       5.03506511        1       0.60360833      -0.42930316      -1.11140743       0.03760358      -0.69444120      -0.55142331
N        1.59518014       0.85128045       4.42414643        2       0.09084596       0.02420755      -0.77345581      -0.19470382       0.84070468       0.01228055
N       -0.01452981       1.83034437       1.92467359        3      -0.92674012       0.67956805       0.46752969      -0.05490837      -0.33328617      -0.31615907
4
Lattice="3.128588 0.0 0.0 -1.5642939988088433 2.709436998432005 0.0 0.0 0.0 5.016955" Properties=species:S:1:pos:R:3:spacegroup_kinds:I:1:momenta:R:3:forces:R:3 spacegroup="P 1" unit_cell=conventional occupancy="_JSON {\"0\": {\"Al\": 1}, \"1\": {\"Al\": 1}, \"2\": {\"N\": 1}, \"3\": {\"N\": 1}}" energy=-29.623743057250977 free_energy=-29.623743057250977 stress="0.004300360567867756 -0.00867264810949564 0.0028819856233894825 -0.00867264810949564 -0.006943480111658573 -0.004434531554579735 0.0028819856233894825 -0.004434531554579735 -0.01483909785747528" pbc="T T T"
Al       1.54321206       0.89379623       2.53645986        0      -0.00705426      -0.41529105       0.79444736      -0.25250277       0.39302844      -0.87834418
Al       0.03580899       1.79893951       4.98957806        1       0.09337920      -0.29525131      -0.61191789      -0.16601154       0.14058156       0.62745064
N        1.59619757       0.90645097       4.40111845        2      -0.02189816       1.09350673       0.27120878      -0.08899789      -0.09593719       0.34911138
N       -0.05911261       1.83464205       1.91219263        3      -0.06442679      -0.38296440      -0.45373829       0.50751221      -0.43767267      -0.09821820
