4
Lattice="3.128588 0.0 0.0 -1.5642939988088433 2.709436998432005 0.0 0.0 0.0 5.016955" Properties=species:S:1:pos:R:3:spacegroup_kinds:I:1:forces:R:3 spacegroup="P 1" unit_cell=conventional occupancy="_JSON {\"0\": {\"Al\": 1}, \"1\": {\"Al\": 1}, \"2\": {\"N\": 1}, \"3\": {\"N\": 1}}" energy=-29.673717498779297 free_energy=-29.673717498779297 stress="-0.0022251971531659365 -1.4557817848981358e-06 -5.89957132035579e-08 -1.4557817848981358e-06 -0.002227400429546833 -6.84032528397438e-08 -5.89957132035579e-08 -6.84032528397438e-08 -0.005453669931739569" pbc="T T T"
Al       1.56429556       0.90314476       2.50490041        0      -0.00003421       0.00002064       0.00553185
Al      -0.00000156       1.80629224       5.01337791        1       0.00003584      -0.00001958       0.00552413
N        1.56429556       0.90314476       4.41849749        2      -0.00003765       0.00002080      -0.00553054
N       -0.00000156       1.80629224       1.91001999        3       0.00003599      -0.00002176      -0.00552488
