4
Lattice="3.128588 0.0 0.0 -1.5642939988088433 2.709436998432005 0.0 0.0 0.0 5.016955" Properties=species:S:1:pos:R:3:spacegroup_kinds:I:1:forces:R:3 spacegroup="P 1" unit_cell=conventional occupancy="_JSON {\"0\": {\"Al\": 1}, \"1\": {\"Al\": 1}, \"2\": {\"N\": 1}, \"3\": {\"N\": 1}}" energy=-29.673715591430664 free_energy=-29.673715591430664 stress="-0.002225299598649144 -1.2843665899708867e-06 1.448457132013914e-09 -1.2843665899708867e-06 -0.0022272919304668903 -2.01453094206272e-08 1.448457132013914e-09 -2.01453094206272e-08 -0.005453598685562611" pbc="T T T"
Al       1.56429556       0.90314476       2.50490041        0      -0.00003434       0.00001944       0.00553211
Al      -0.00000156       1.80629224       5.01337791        1       0.00003361      -0.00001964       0.00552464
N        1.56429556       0.90314476       4.41849749        2      -0.00003558       0.00002004      -0.00552999
N       -0.00000156       1.80629224       1.91001999        3       0.00003621      -0.00001997      -0.00552654
