4
Lattice="3.128588 0.0 0.0 -1.5642939988088433 2.709436998432005 0.0 0.0 0.0 5.016955" Properties=species:S:1:pos:R:3:spacegroup_kinds:I:1:momenta:R:3:forces:R:3 spacegroup="P 1" unit_cell=conventional occupancy="_JSON {\"0\": {\"Al\": 1}, \"1\": {\"Al\": 1}, \"2\": {\"N\": 1}, \"3\": {\"N\": 1}}" energy=-29.623743057250977 free_energy=-29.623743057250977 stress="0.004300200846046209 -0.008672683499753475 0.0028821509331464767 -0.008672683499753475 -0.00694394251331687 -0.004434711765497923 0.0028821509331464767 -0.004434711765497923 -0.014838282018899918" pbc="T T T"
Al       1.54321202       0.89379623       2.53645983        0      -0.00705447      -0.41529155       0.79445048      -0.25250131       0.39303064      -0.87833607
Al       0.03580901       1.79893952       4.98957805        1       0.09337965      -0.29525105      -0.61191930      -0.16601452       0.14058159       0.62744844
N        1.59619753       0.90645097       4.40111852        2      -0.02189850       1.09350639       0.27120751      -0.08899368      -0.09593867       0.34910795
N       -0.05911262       1.83464210       1.91219265        3      -0.06442672      -0.38296380      -0.45373863       0.50750971      -0.43767357      -0.09822042
