4
Lattice="3.128588 0.0 0.0 -1.5642939988088433 2.709436998432005 0.0 0.0 0.0 5.016955" Properties=species:S:1:pos:R:3:spacegroup_kinds:I:1:momenta:R:3:forces:R:3 spacegroup="P 1" unit_cell=conventional occupancy="_JSON {\"0\": {\"Al\": 1}, \"1\": {\"Al\": 1}, \"2\": {\"N\": 1}, \"3\": {\"N\": 1}}" energy=-29.673715591430664 free_energy=-29.673715591430664 stress="-0.0022252551279962063 -1.364191575703444e-06 -3.07265040078164e-08 -1.364191575703444e-06 -0.002227426040917635 -3.778349011440696e-08 -3.07265040078164e-08 -3.778349011440696e-08 -0.005453681573271751" pbc="T T T"
Al       1.56429556       0.90314476       2.50490041        0       0.68448204       0.53670047       0.91071479      -0.00003430       0.00001928       0.00553210
Al      -0.00000156       1.80629224       5.01337791        1       0.31075784       0.39520501      -1.87833745       0.00003483      -0.00001979       0.00552393
N        1.56429556       0.90314476       4.41849749        2      -0.23293981      -0.79739853      -0.40745139      -0.00003629       0.00002052      -0.00553022
N       -0.00000156       1.80629224       1.91001999        3      -0.76230006      -0.13450696       1.37507406       0.00003555      -0.00002002      -0.00552581
4
Lattice="3.128588 0.0 0.0 -1.5642939988088433 2.709436998432005 0.0 0.0 0.0 5.016955" Properties=species:S:1:pos:R:3:spacegroup_kinds:I:1:momenta:R:3:forces:R:3 spacegroup="P 1" unit_cell=conventional occupancy="_JSON {\"0\": {\"Al\": 1}, \"1\": {\"Al\": 1}, \"2\": {\"N\": 1}, \"3\": {\"N\": 1}}" energy=-29.433595657348633 free_energy=-29.433595657348633 stress="-0.013773520477116108 -0.016446450725197792 0.012948757037520409 -0.016446450725197792 -0.023968752473592758 0.009969696402549744 0.012948757037520409 0.009969696402549744 -0.012059538625180721" pbc="T T T"
Al       1.60246140       0.92231284       2.54150849        0       0.57498192      -0.13491985       1.02882489      -1.31301165      -0.49033305      -0.87831378
Al       0.00328789       1.81111139       4.94718774        1      -0.44725795       0.00118053      -1.07867326      -0.30154121      -0.59423298       1.18011773
N        1.53678588       0.85870780       4.38099594        2       0.14052027      -0.46066719       0.20203868       0.28490704       0.67984515       1.25553703
N       -0.05228245       1.80432670       2.00436659        3      -0.26824427       0.59440654      -0.15219029       1.32964587       0.40472066      -1.55734110
4
Lattice="3.128588 0.0 0.0 -1.5642939988088433 2.709436998432005 0.0 0.0 0.0 5.016955" Properties=species:S:1:pos:R:3:spacegroup_kinds:I:1:momenta:R:3:forces:R:3 spacegroup="P 1" unit_cell=conventional occupancy="_JSON {\"0\": {\"Al\": 1}, \"1\": {\"Al\": 1}, \"2\": {\"N\": 1}, \"3\": {\"N\": 1}}" energy=-29.567256927490234 free_energy=-29.567256927490234 stress="0.012915892526507378 0.0017025135457515717 0.0035793769638985395 0.0017025135457515717 -0.025857027620077133 -0.005369159858673811 0.0035793769638985395 -0.005369159858673811 -0.011435141786932945" pbc="T T T"
Al       1.59598185       0.90138486       2.55101266        0      -0.85003972      -0.64755183      -0.41676280      -0.33522600       0.74370384      -1.26921105
Al      -0.01311799       1.79082859       4.96769657        1      -0.24557021      -0.74327744       1.65595781      -0.18280213      -0.17026757       1.21499586
N        1.52960408       0.86779351       4.41996341        2       0.16413063       0.60763546       0.63654571       0.31887591       0.39321417      -0.09056950
N       -0.00060094       1.87475188       1.90756520        3       0.93147925       0.78319390      -1.87574067       0.19915202      -0.96665025       0.14478442
4
Lattice="3.128588 0.0 0.0 -1.5642939988088433 2.709436998432005 0.0 0.0 0.0 5.016955" Properties=species:S:1:pos:R:3:spacegroup_kinds:I:1:momenta:R:3:forces:R:3 spacegroup="P 1" unit_cell=conventional occupancy="_JSON {\"0\": {\"Al\": 1}, \"1\": {\"Al\": 1}, \"2\": {\"N\": 1}, \"3\": {\"N\": 1}}" energy=-29.406274795532227 free_energy=-29.406274795532227 stress="0.010688628070056438 0.016498269513249397 -0.008163991384208202 0.016498269513249397 -0.00942347664386034 -0.015554003417491913 -0.008163991384208202 -0.015554003417491913 -0.0612541064620018" pbc="T T T"
Al       1.53423928       0.87298460       2.51007454        0      -1.60925372       0.09619194      -1.03262317       0.74608928       1.00298536       0.03482425
Al      -0.01349003       1.78470224       5.05709165        1       0.21561244      -0.04339789       1.72443269       0.02271139       0.40733051      -1.66436875
N        1.55208974       0.92225130       4.42203507        2       0.38659376       0.63935819      -0.93002914       0.04495886      -0.39009762      -0.56986189
N        0.09667397       1.88681817       1.81230438        3       1.00704746      -0.69215214       0.23821971      -0.81375957      -1.02021801       2.19940591
4
Lattice="3.128588 0.0 0.0 -1.5642939988088433 2.709436998432005 0.0 0.0 0.0 5.016955" Properties=species:S:1:pos:R:3:spacegroup_kinds:I:1:momenta:R:3:forces:R:3 spacegroup="P 1" unit_cell=conventional occupancy="_JSON {\"0\": {\"Al\": 1}, \"1\": {\"Al\": 1}, \"2\": {\"N\": 1}, \"3\": {\"N\": 1}}" energy=-29.201904296875 free_energy=-29.201904296875 stress="-0.026440879330039024 0.038155246526002884 -0.03138263151049614 0.038155246526002884 -0.004877519328147173 0.0015437136171385646 -0.03138263151049614 0.0015437136171385646 -0.0518198162317276" pbc="T T T"
Al       1.49382403       0.87740192       2.48150490        0      -0.08661628      -0.02748815       0.25595546       2.48428249      -0.46186507       1.22611475
Al      -0.02076736       1.79337853       5.08843294        1       0.00716711       0.60209039      -1.27068307       0.64723253       0.57433420      -2.36003971
N        1.60157221       0.96971685       4.33361323        2       0.49437296       0.53651065      -0.17473329      -0.53882438      -0.70145190       1.74609065
N        0.13924905       1.81421454       1.89535166        3      -0.41492380      -1.11111278       1.18946095      -2.59269047       0.58898312      -0.61216617
4
Lattice="3.128588 0.0 0.0 -1.5642939988088433 2.709436998432005 0.0 0.0 0.0 5.016955" Properties=species:S:1:pos:R:3:spacegroup_kinds:I:1:momenta:R:3:forces:R:3 spacegroup="P 1" unit_cell=conventional occupancy="_JSON {\"0\": {\"Al\": 1}, \"1\": {\"Al\": 1}, \"2\": {\"N\": 1}, \"3\": {\"N\": 1}}" energy=-29.57462501525879 free_energy=-29.57462501525879 stress="-0.02361788973212242 -0.014321397058665752 -0.011127923615276814 -0.014321397058665752 0.01503004226833582 -0.0028546208050101995 -0.011127923615276814 -0.0028546208050101995 -0.014440411701798439" pbc="T T T"
Al       1.53421962       0.88369269       2.53780583        0       1.55944029       0.36820904       1.55971050       0.29264086      -0.24000373      -0.91367847
Al      -0.00048007       1.82107764       4.98837339        1       1.01688556       0.86374288      -2.47525500       0.94369614       0.52251577       0.78486598
N        1.63583967       0.96584652       4.40663189        2      -0.31021901      -0.52489293       1.27117369      -1.15103841      -0.78907180       0.05687896
N       -0.01177523       1.75252282       1.90648730        3      -2.26610693      -0.70705888      -0.35562920      -0.08529861       0.50655967       0.07193346
4
Lattice="3.128588 0.0 0.0 -1.5642939988088433 2.709436998432005 0.0 0.0 0.0 5.016955" Properties=species:S:1:pos:R:3:spacegroup_kinds:I:1:momenta:R:3:forces:R:3 spacegroup="P 1" unit_cell=conventional occupancy="_JSON {\"0\": {\"Al\": 1}, \"1\": {\"Al\": 1}, \"2\": {\"N\": 1}, \"3\": {\"N\": 1}}" energy=-29.372072219848633 free_energy=-29.372072219848633 stress="-0.005629712715744972 -0.018719397485256195 0.015849484130740166 -0.018719397485256195 -0.03227303922176361 0.01721217855811119 0.015849484130740166 0.01721217855811119 -0.007298121694475412" pbc="T T T"
Al       1.57072833       0.88046442       2.56331977        0      -0.00039284      -0.37629512      -0.57844120      -1.34386563      -0.44065821      -1.50707674
Al       0.05055071       1.86456081       4.94968566        1       0.52727006       0.77034182       1.04960256      -0.49129081      -1.36433637       1.82584870
N        1.58204799       0.88176661       4.44992391        2      -0.27832251      -1.02263409      -0.55459337       0.15003778       1.16375995      -0.85894972
N       -0.12661083       1.75915457       1.88869870        3      -0.24855477       0.62858746       0.08343197       1.68511820       0.64123446       0.54017770
4
Lattice="3.128588 0.0 0.0 -1.5642939988088433 2.709436998432005 0.0 0.0 0.0 5.016955" Properties=species:S:1:pos:R:3:spacegroup_kinds:I:1:momenta:R:3:forces:R:3 spacegroup="P 1" unit_cell=conventional occupancy="_JSON {\"0\": {\"Al\": 1}, \"1\": {\"Al\": 1}, \"2\": {\"N\": 1}, \"3\": {\"N\": 1}}" energy=-29.596925735473633 free_energy=-29.596925735473633 stress="0.015976402908563614 -0.004506152123212814 0.006018773186951876 -0.004506152123212814 -0.025499414652585983 -0.004597023129463196 0.006018773186951876 -0.004597023129463196 -0.010013659484684467" pbc="T T T"
Al       1.53284805       0.86390067       2.51395076        0      -1.59464488      -0.16469632      -1.74991388      -0.27820489       0.89915776      -0.15420756
Al       0.06317841       1.83227868       5.00948381        1       0.38439980      -1.80666588       1.59450041      -0.58708394      -0.41271967       0.16725326
N        1.58572477       0.89623784       4.41422573        2       0.14193178       1.12964928      -0.09119154       0.25703970       0.38076890       0.00228040
N       -0.08152102       1.83862420       1.90381449        3       1.06831324       0.84171296       0.24660505       0.60824907      -0.86720717      -0.01532624
4
Lattice="3.128588 0.0 0.0 -1.5642939988088433 2.709436998432005 0.0 0.0 0.0 5.016955" Properties=species:S:1:pos:R:3:spacegroup_kinds:I:1:momenta:R:3:forces:R:3 spacegroup="P 1" unit_cell=conventional occupancy="_JSON {\"0\": {\"Al\": 1}, \"1\": {\"Al\": 1}, \"2\": {\"N\": 1}, \"3\": {\"N\": 1}}" energy=-29.46255111694336 free_energy=-29.46255111694336 stress="-0.0056968796998262405 0.01084936410188675 -0.003906434867531061 0.01084936410188675 -0.0191336739808321 -0.012703418731689453 -0.003906434867531061 -0.012703418731689453 -0.011871224269270897" pbc="T T T"
Al       1.48347330       0.88264397       2.44527926        0      -0.30454466       1.01149515      -0.60004539       0.88392949       0.95768344       1.70777297
Al       0.06164409       1.77681262       5.07306076        1      -0.86715220      -0.75617426       0.43048935      -0.30080381       0.71655196      -1.72280955
N        1.61717708       0.94947182       4.40498428        2       0.38645822       0.04830125       0.18623330      -0.07234130      -0.67485887       0.48910958
N       -0.01486931       1.85626146       1.92266699        3       0.78523859      -0.30362211      -0.01667728      -0.51078403      -0.99937642      -0.47407305
4
Lattice="3.128588 0.0 0.0 -1.5642939988088433 2.709436998432005 0.0 0.0 0.0 5.016955" Properties=species:S:1:pos:R:3:spacegroup_kinds:I:1:momenta:R:3:forces:R:3 spacegroup="P 1" unit_cell=conventional occupancy="_JSON {\"0\": {\"Al\": 1}, \"1\": {\"Al\": 1}, \"2\": {\"N\": 1}, \"3\": {\"N\": 1}}" energy=-29.51875114440918 free_energy=-29.51875114440918 stress="-0.023370657116174698 0.006540228147059679 -0.01609819196164608 0.006540228147059679 0.006697339005768299 -0.00048234217683784664 -0.01609819196164608 -0.00048234217683784664 -0.02216118387877941" pbc="T T T"
Al       1.50607639       0.94974318       2.46463696        0       1.15921307       0.62635164       1.50690023       1.24247718      -0.60704577       1.15697265
Al       0.01335470       1.75088042       5.06242874        1      -0.91112055       0.14825237      -0.88962774       0.51474130       0.69610679      -1.43088973
N        1.62637955       0.90489621       4.42127859        2      -0.14223490      -0.64065003       0.21498384      -0.71771353      -0.51824176      -0.07984813
N        0.02538009       1.82158365       1.88963024        3      -0.10585771      -0.13395395      -0.83225638      -1.03950524       0.42918068       0.35376519
4
Lattice="3.128588 0.0 0.0 -1.5642939988088433 2.709436998432005 0.0 0.0 0.0 5.016955" Properties=species:S:1:pos:R:3:spacegroup_kinds:I:1:momenta:R:3:forces:R:3 spacegroup="P 1" unit_cell=conventional occupancy="_JSON {\"0\": {\"Al\": 1}, \"1\": {\"Al\": 1}, \"2\": {\"N\": 1}, \"3\": {\"N\": 1}}" energy=-29.605009078979492 free_energy=-29.605009078979492 stress="0.0015959005104377866 -0.006785950157791376 -0.003095216117799282 -0.006785950157791376 0.001780591788701713 0.001724262605421245 -0.003095216117799282 0.001724262605421245 -0.023113951086997986" pbc="T T T"
Al       1.56693924       0.93861029       2.54470912        0       1.44875286      -0.98943815       1.48437418      -0.01659525      -0.29131585      -1.20301843
Al      -0.01304571       1.78057348       4.99752448        1       0.01689781       1.11024963      -1.70730027       0.38438427       0.02358318       0.50762761
N        1.58384204       0.87104974       4.42155574        2      -0.67927437      -0.02704925      -0.19037192      -0.39236623       0.15177900      -0.39792991
N        0.00122213       1.81989278       1.85992055        3      -0.78637634      -0.09376221       0.41329800       0.02457724       0.11595382       1.09332061
4
Lattice="3.128588 0.0 0.0 -1.5642939988088433 2.709436998432005 0.0 0.0 0.0 5.016955" Properties=species:S:1:pos:R:3:spacegroup_kinds:I:1:momenta:R:3:forces:R:3 spacegroup="P 1" unit_cell=conventional occupancy="_JSON {\"0\": {\"Al\": 1}, \"1\": {\"Al\": 1}, \"2\": {\"N\": 1}, \"3\": {\"N\": 1}}" energy=-29.470203399658203 free_energy=-29.470203399658203 stress="0.003203204134479165 -0.017801426351070404 0.01183832436800003 -0.017801426351070404 -0.041349057108163834 0.00735993729904294 0.01183832436800003 0.00735993729904294 -0.005160200409591198" pbc="T T T"
Al       1.62755625       0.89950078       2.54516753        0       1.04970720      -0.99981852      -0.80202971      -1.41064680       0.15933320      -0.91779101
Al      -0.00757057       1.81703573       4.95606284        1      -0.03757908       0.11959824      -0.16512704      -0.26242852      -0.84351516       1.41445708
N        1.52756232       0.85151210       4.42065484        2      -0.42752237       0.29023079      -0.07965743       0.31765988       0.98894548      -0.00115414
N       -0.06966663       1.84442110       1.93994536        3      -0.58460576       0.58998945       1.04681414       1.35541546      -0.30476379      -0.49551192
4
Lattice="3.128588 0.0 0.0 -1.5642939988088433 2.709436998432005 0.0 0.0 0.0 5.016955" Properties=species:S:1:pos:R:3:spacegroup_kinds:I:1:momenta:R:3:forces:R:3 spacegroup="P 1" unit_cell=conventional occupancy="_JSON {\"0\": {\"Al\": 1}, \"1\": {\"Al\": 1}, \"2\": {\"N\": 1}, \"3\": {\"N\": 1}}" energy=-29.45298957824707 free_energy=-29.45298957824707 stress="-0.01322507206350565 -0.0237500611692667 0.007911589927971363 -0.0237500611692667 -0.04793182760477066 -0.007333292625844479 0.007911589927971363 -0.007333292625844479 0.028632808476686478" pbc="T T T"
Al       1.63184035       0.85684029       2.46693548        0      -0.97589037      -0.55899553      -1.34838417      -1.39010000       1.11026073       1.17304075
Al      -0.02377743       1.82170282       4.98999601        1      -0.28018849       0.45883561       1.28013577      -0.08532989       0.08283582       0.34697300
N        1.52792697       0.92957754       4.44479005        2       0.11446510       0.97873188       0.08012585       0.22036545      -0.17398849       0.05598409
N       -0.04718867       1.83921499       2.00086009        3       1.14161366      -0.87857198      -0.01187742       1.25506425      -1.01910841      -1.57599759
4
Lattice="3.128588 0.0 0.0 -1.5642939988088433 2.709436998432005 0.0 0.0 0.0 5.016955" Properties=species:S:1:pos:R:3:spacegroup_kinds:I:1:momenta:R:3:forces:R:3 spacegroup="P 1" unit_cell=conventional occupancy="_JSON {\"0\": {\"Al\": 1}, \"1\": {\"Al\": 1}, \"2\": {\"N\": 1}, \"3\": {\"N\": 1}}" energy=-29.536317825317383 free_energy=-29.536317825317383 stress="-0.019857507199048996 0.01382892020046711 -0.005717476364225149 0.01382892020046711 -0.0031641004607081413 -0.0016709346091374755 -0.005717476364225149 -0.0016709346091374755 -0.006260421592742205" pbc="T T T"
Al       1.56291506       0.86348346       2.43836894        0      -1.44558752       0.38889064       0.34074928       0.67285800       0.11609499       1.45909572
Al      -0.01834142       1.83613140       5.05736572        1       0.19731468      -0.00921497       1.04742127       0.06595257       0.15003350      -1.19267416
N        1.54726699       0.95741146       4.47045643        2      -0.01023948       0.05684977       0.14844036       0.09761263      -0.44420758      -0.65174705
N        0.05576962       1.77068665       1.90062728        3       1.25851224      -0.43652545      -1.53661090      -0.83642316       0.17807907       0.38532531
4
Lattice="3.128588 0.0 0.0 -1.5642939988088433 2.709436998432005 0.0 0.0 0.0 5.016955" Properties=species:S:1:pos:R:3:spacegroup_kinds:I:1:momenta:R:3:forces:R:3 spacegroup="P 1" unit_cell=conventional occupancy="_JSON {\"0\": {\"Al\": 1}, \"1\": {\"Al\": 1}, \"2\": {\"N\": 1}, \"3\": {\"N\": 1}}" energy=-29.5310001373291 free_energy=-29.5310001373291 stress="-0.018293926492333412 0.0157075934112072 -0.011607697233557701 0.0157075934112072 0.003147953189909458 0.004605654627084732 -0.011607697233557701 0.004605654627084732 -0.01725885272026062" pbc="T T T"
Al       1.54701075       0.87273543       2.46070912        0       0.71855733      -0.11584300       0.49435374       1.07476878      -0.28505677       1.06925416
Al      -0.01761628       1.84389398       5.05391120        1       0.19346394       0.17720374      -0.69190231       0.23187806      -0.07941911      -1.16824996
N        1.56395356       0.94331120       4.45961402        2       0.32487446      -0.12409375      -0.51346164      -0.11547254      -0.20503315      -0.72920251
N        0.06831343       1.75176767       1.87546341        3      -1.23689577       0.06273298       0.71101020      -1.19117439       0.56950897       0.82819843
4
Lattice="3.128588 0.0 0.0 -1.5642939988088433 2.709436998432005 0.0 0.0 0.0 5.016955" Properties=species:S:1:pos:R:3:spacegroup_kinds:I:1:momenta:R:3:forces:R:3 spacegroup="P 1" unit_cell=conventional occupancy="_JSON {\"0\": {\"Al\": 1}, \"1\": {\"Al\": 1}, \"2\": {\"N\": 1}, \"3\": {\"N\": 1}}" energy=-29.613210678100586 free_energy=-29.613210678100586 stress="-0.008381644263863564 -0.004276738036423922 0.005492806900292635 -0.004276738036423922 -0.013937045820057392 0.001480485312640667 0.005492806900292635 0.001480485312640667 0.012475494295358658" pbc="T T T"
Al       1.57767907       0.87033378       2.48321564        0       0.42145823      -0.10086006       0.75449496      -0.50598788       0.14215302       0.64867610
Al       0.00878681       1.84488741       5.00616576        1       0.94842571       0.04829641      -0.67234709      -0.28190926      -0.37569761       0.05942888
N        1.54733737       0.91884315       4.41695261        2      -0.50233655      -0.06173817      -0.86681685       0.26756668       0.16352545       0.34766611
N       -0.02491945       1.77881438       1.96659670        3      -0.86754742       0.11430180       0.78466904       0.52033025       0.07001904      -1.05577123
4
Lattice="3.128588 0.0 0.0 -1.5642939988088433 2.709436998432005 0.0 0.0 0.0 5.016955" Properties=species:S:1:pos:R:3:spacegroup_kinds:I:1:momenta:R:3:forces:R:3 spacegroup="P 1" unit_cell=conventional occupancy="_JSON {\"0\": {\"Al\": 1}, \"1\": {\"Al\": 1}, \"2\": {\"N\": 1}, \"3\": {\"N\": 1}}" energy=-29.55784034729004 free_energy=-29.55784034729004 stress="-0.01636364310979843 -0.002947536064311862 0.012903675436973572 -0.002947536064311862 -0.006207284517586231 0.0015375814400613308 0.012903675436973572 0.0015375814400613308 -0.0027149501256644726" pbc="T T T"
Al       1.59068810       0.88023428       2.52274592        0      -0.41625585       0.17887030       0.33160907      -0.90884197      -0.14030676      -0.36868274
Al       0.01872293       1.83477379       4.97781989        1       0.14973959      -0.20762987      -0.17578494      -0.72829545      -0.10046196       0.72653168
N        1.52039167       0.92489997       4.39464372        2       0.19754386       0.25939816       0.47781727       0.72475827      -0.09605084       0.71573871
N       -0.04216863       1.77342025       1.96745698        3       0.06897236      -0.23063858      -0.63364127       0.91237915       0.33681977      -1.07358754
4
Lattice="3.128588 0.0 0.0 -1.5642939988088433 2.709436998432005 0.0 0.0 0.0 5.016955" Properties=species:S:1:pos:R:3:spacegroup_kinds:I:1:momenta:R:3:forces:R:3 spacegroup="P 1" unit_cell=conventional occupancy="_JSON {\"0\": {\"Al\": 1}, \"1\": {\"Al\": 1}, \"2\": {\"N\": 1}, \"3\": {\"N\": 1}}" energy=-29.621112823486328 free_energy=-29.621112823486328 stress="-0.021500805392861366 0.005276404786854982 -0.003267445368692279 0.005276404786854982 0.010657616890966892 0.0019249117467552423 -0.003267445368692279 0.0019249117467552423 -0.0015898093115538359" pbc="T T T"
Al       1.54767648       0.89587761       2.50832862        0      -0.85809957       0.46896524      -1.00003194       0.39160520      -0.39028889      -0.15032753
Al       0.00665803       1.82067519       5.00342496        1      -0.72966970      -0.11082640       1.46536867      -0.00949834       0.22697078       0.34863308
N        1.57185928       0.94293295       4.45440720        2       0.62349890      -0.37686548       0.64593239      -0.01969881      -0.43335366      -0.83890247
N        0.01256030       1.75229422       1.88600532        3       0.96427035       0.01872663      -1.11126905      -0.36240795       0.59667188       0.64059681
4
Lattice="3.128588 0.0 0.0 -1.5642939988088433 2.709436998432005 0.0 0.0 0.0 5.016955" Properties=species:S:1:pos:R:3:spacegroup_kinds:I:1:momenta:R:3:forces:R:3 spacegroup="P 1" unit_cell=conventional occupancy="_JSON {\"0\": {\"Al\": 1}, \"1\": {\"Al\": 1}, \"2\": {\"N\": 1}, \"3\": {\"N\": 1}}" energy=-29.520856857299805 free_energy=-29.520856857299805 stress="-0.014047517441213131 0.011820987798273563 -0.014255554415285587 0.011820987798273563 -0.005614620633423328 0.009361439384520054 -0.014255554415285587 0.009361439384520054 -0.019571084529161453" pbc="T T T"
Al       1.52999428       0.91403917       2.46474568        0       0.09545127      -0.23101187      -1.18071452       1.21875429      -0.63577175       0.99290341
Al      -0.00890654       1.82180735       5.05208971        1       0.31216892      -0.10747527       0.45537710       0.39472628      -0.38378489      -1.12710452
N        1.59437710       0.88605553       4.45928986        2      -0.04799007      -0.53350265      -0.20523250      -0.40810385       0.35578954      -0.79021597
N        0.05384444       1.77207217       1.87145001        3      -0.35963014       0.87198979       0.93056995      -1.20537663       0.66376716       0.92441738
4
Lattice="3.128588 0.0 0.0 -1.5642939988088433 2.709436998432005 0.0 0.0 0.0 5.016955" Properties=species:S:1:pos:R:3:spacegroup_kinds:I:1:momenta:R:3:forces:R:3 spacegroup="P 1" unit_cell=conventional occupancy="_JSON {\"0\": {\"Al\": 1}, \"1\": {\"Al\": 1}, \"2\": {\"N\": 1}, \"3\": {\"N\": 1}}" energy=-29.61878776550293 free_energy=-29.61878776550293 stress="0.010117704048752785 -0.0018219641642645001 -0.0018730174051597714 -0.0018219641642645001 -0.024782991036772728 0.004591135773807764 -0.0018730174051597714 0.004591135773807764 2.6368999897385947e-05" pbc="T T T"
Al       1.53818032       0.90928019       2.47247627        0       0.23228517      -0.27447306       1.41733418       0.21200852       0.18702230       0.85530865
Al       0.01802691       1.81430743       5.03506518        1       0.60360846      -0.42930297      -1.11140949       0.03760180      -0.69444233      -0.55142576
N        1.59518012       0.85128051       4.42414650        2       0.09084597       0.02420705      -0.77345398      -0.19470310       0.84070683       0.01228113
N       -0.01452986       1.83034434       1.92467362        3      -0.92673964       0.67956897       0.46752933      -0.05490714      -0.33328685      -0.31616402
4
Lattice="3.128588 0.0 0.0 -1.5642939988088433 2.709436998432005 0.0 0.0 0.0 5.016955" Properties=species:S:1:pos:R:3:spacegroup_kinds:I:1:momenta:R:3:forces:R:3 spacegroup="P 1" unit_cell=conventional occupancy="_JSON {\"0\": {\"Al\": 1}, \"1\": {\"Al\": 1}, \"2\": {\"N\": 1}, \"3\": {\"N\": 1}}" energy=-29.623743057250977 free_energy=-29.623743057250977 stress="0.004300200846046209 -0.008672683499753475 0.0028821509331464767 -0.008672683499753475 -0.00694394251331687 -0.004434711765497923 0.0028821509331464767 -0.004434711765497923 -0.014838282018899918" pbc="T T T"
Al       1.54321202       0.89379623       2.53645983        0      -0.00705447      -0.41529155       0.79445048      -0.25250131       0.39303064      -0.87833607
Al       0.03580901       1.79893952       4.98957805        1       0.09337965      -0.29525105      -0.61191930      -0.16601452       0.14058159       0.62744844
N        1.59619753       0.90645097       4.40111852        2      -0.02189850       1.09350639       0.27120751      -0.08899368      -0.09593867       0.34910795
N       -0.05911262       1.83464210       1.91219265        3      -0.06442672      -0.38296380      -0.45373863       0.50750971      -0.43767357      -0.09822042
