4
Lattice="3.128588 0.0 0.0 -1.5642939988088433 2.709436998432005 0.0 0.0 0.0 5.016955" Properties=species:S:1:pos:R:3:spacegroup_kinds:I:1:forces:R:3 spacegroup="P 1" unit_cell=conventional occupancy="_JSON {\"0\": {\"Al\": 1}, \"1\": {\"Al\": 1}, \"2\": {\"N\": 1}, \"3\": {\"N\": 1}}" energy=-29.673715591430664 free_energy=-29.673715591430664 stress="-0.0022252551279962063 -1.364191575703444e-06 -3.07265040078164e-08 -1.364191575703444e-06 -0.002227426040917635 -3.778349011440696e-08 -3.07265040078164e-08 -3.778349011440696e-08 -0.005453681573271751" pbc="T T T"
Al       1.56429556       0.90314476       2.50490041        0      -0.00003430       0.00001928       0.00553210
Al      -0.00000156       1.80629224       5.01337791        1       0.00003483      -0.00001979       0.00552393
N        1.56429556       0.90314476       4.41849749        2      -0.00003629       0.00002052      -0.00553022
N       -0.00000156       1.80629224       1.91001999        3       0.00003555      -0.00002002      -0.00552581
