4
Lattice="3.128588 0.0 0.0 -1.5642939988088433 2.709436998432005 0.0 0.0 0.0 5.016955" Properties=species:S:1:pos:R:3:spacegroup_kinds:I:1:momenta:R:3:forces:R:3 spacegroup="P 1" unit_cell=conventional occupancy="_JSON {\"0\": {\"Al\": 1}, \"1\": {\"Al\": 1}, \"2\": {\"N\": 1}, \"3\": {\"N\": 1}}" energy=-29.62374496459961 free_energy=-29.62374496459961 stress="0.0043003312312066555 -0.008672723546624184 0.002882234286516905 -0.008672723546624184 -0.006944037973880768 -0.0044347853399813175 0.002882234286516905 -0.0044347853399813175 -0.014838446862995625" pbc="T T T"
Al       1.54321203       0.89379622       2.53645982        0      -0.00705399      -0.41529097       0.79445099      -0.25250438       0.39303011      -0.87833524
Al       0.03580900       1.79893951       4.98957807        1       0.09337942      -0.29525184      -0.61192112      -0.16601363       0.14058065       0.62744498
N        1.59619756       0.90645097       4.40111856        2      -0.02189844       1.09350715       0.27120845      -0.08899618      -0.09593728       0.34910449
N       -0.05911262       1.83464209       1.91219263        3      -0.06442699      -0.38296435      -0.45373831       0.50751424      -0.43767339      -0.09821472
