4
Lattice="3.128588 0.0 0.0 -1.5642939988088433 2.709436998432005 0.0 0.0 0.0 5.016955" Properties=species:S:1:pos:R:3:spacegroup_kinds:I:1:momenta:R:3:forces:R:3 spacegroup="P 1" unit_cell=conventional occupancy="_JSON {\"0\": {\"Al\": 1}, \"1\": {\"Al\": 1}, \"2\": {\"N\": 1}, \"3\": {\"N\": 1}}" energy=-29.673717498779297 free_energy=-29.673717498779297 stress="-0.0022253680508583784 -1.3539204246626468e-06 7.99836463727388e-09 -1.3539204246626468e-06 -0.0022273617796599865 -4.483490556594916e-08 7.99836463727388e-09 -4.483490556594916e-08 -0.005453707184642553" pbc="T T T"
Al       1.56429556       0.90314476       2.50490041        0       0.68448204       0.53670047       0.91071479      -0.00003408       0.00002025       0.00553079
Al      -0.00000156       1.80629224       5.01337791        1       0.31075784       0.39520501      -1.87833745       0.00003424      -0.00001916       0.00552446
N        1.56429556       0.90314476       4.41849749        2      -0.23293981      -0.79739853      -0.40745139      -0.00003569       0.00001969      -0.00553022
N       -0.00000156       1.80629224       1.91001999        3      -0.76230006      -0.13450696       1.37507406       0.00003553      -0.00002069      -0.00552519
4
Lattice="3.128588 0.0 0.0 -1.5642939988088433 2.709436998432005 0.0 0.0 0.0 5.016955" Properties=species:S:1:pos:R:3:spacegroup_kinds:I:1:momenta:R:3:forces:R:3 spacegroup="P 1" unit_cell=conventional occupancy="_JSON {\"0\": {\"Al\": 1}, \"1\": {\"Al\": 1}, \"2\": {\"N\": 1}, \"3\": {\"N\": 1}}" energy=-29.433591842651367 free_energy=-29.433591842651367 stress="-0.013773354701697826 -0.016446471214294434 0.012948784977197647 -0.016446471214294434 -0.023968851193785667 0.009969755075871944 0.012948784977197647 0.009969755075871944 -0.012059470638632774" pbc="T T T"
Al       1.60246141       0.92231284       2.54150849        0       0.57498210      -0.13491987       1.02882470      -1.31301427      -0.49033380      -0.87831384
Al       0.00328789       1.81111139       4.94718774        1      -0.44725797       0.00118056      -1.07867310      -0.30154163      -0.59423405       1.18011856
N        1.53678587       0.85870779       4.38099594        2       0.14052021      -0.46066727       0.20203866       0.28490737       0.67984718       1.25553632
N       -0.05228246       1.80432670       2.00436659        3      -0.26824437       0.59440661      -0.15219029       1.32964826       0.40472049      -1.55734110
4
Lattice="3.128588 0.0 0.0 -1.5642939988088433 2.709436998432005 0.0 0.0 0.0 5.016955" Properties=species:S:1:pos:R:3:spacegroup_kinds:I:1:momenta:R:3:forces:R:3 spacegroup="P 1" unit_cell=conventional occupancy="_JSON {\"0\": {\"Al\": 1}, \"1\": {\"Al\": 1}, \"2\": {\"N\": 1}, \"3\": {\"N\": 1}}" energy=-29.5672550201416 free_energy=-29.5672550201416 stress="0.012915774248540401 0.0017025412525981665 0.003579347860068083 0.0017025412525981665 -0.025857144966721535 -0.005369152408093214 0.003579347860068083 -0.005369152408093214 -0.011435260064899921" pbc="T T T"
Al       1.59598186       0.90138486       2.55101264        0      -0.85003979      -0.64755165      -0.41676312      -0.33522573       0.74370384      -1.26921320
Al      -0.01311799       1.79082858       4.96769658        1      -0.24557044      -0.74327805       1.65595809      -0.18280233      -0.17026924       1.21499777
N        1.52960407       0.86779352       4.41996341        2       0.16413081       0.60763591       0.63654567       0.31887677       0.39321572      -0.09056962
N       -0.00060094       1.87475189       1.90756520        3       0.93147938       0.78319377      -1.87574065       0.19915140      -0.96665013       0.14478482
4
Lattice="3.128588 0.0 0.0 -1.5642939988088433 2.709436998432005 0.0 0.0 0.0 5.016955" Properties=species:S:1:pos:R:3:spacegroup_kinds:I:1:momenta:R:3:forces:R:3 spacegroup="P 1" unit_cell=conventional occupancy="_JSON {\"0\": {\"Al\": 1}, \"1\": {\"Al\": 1}, \"2\": {\"N\": 1}, \"3\": {\"N\": 1}}" energy=-29.406274795532227 free_energy=-29.406274795532227 stress="0.010688683949410915 0.016498174518346786 -0.008164020255208015 0.016498174518346786 -0.009423201903700829 -0.015553957782685757 -0.008164020255208015 -0.015553957782685757 -0.06125402823090553" pbc="T T T"
Al       1.53423929       0.87298461       2.51007452        0      -1.60925371       0.09619201      -1.03262290       0.74608910       1.00298595       0.03482339
Al      -0.01349004       1.78470221       5.05709165        1       0.21561204      -0.04339782       1.72443237       0.02271280       0.40733060      -1.66436923
N        1.55208973       0.92225133       4.42203508        2       0.38659413       0.63935782      -0.93002919       0.04495723      -0.39009821      -0.56986141
N        0.09667397       1.88681818       1.81230438        3       1.00704752      -0.69215206       0.23821974      -0.81375909      -1.02021837       2.19940662
4
Lattice="3.128588 0.0 0.0 -1.5642939988088433 2.709436998432005 0.0 0.0 0.0 5.016955" Properties=species:S:1:pos:R:3:spacegroup_kinds:I:1:momenta:R:3:forces:R:3 spacegroup="P 1" unit_cell=conventional occupancy="_JSON {\"0\": {\"Al\": 1}, \"1\": {\"Al\": 1}, \"2\": {\"N\": 1}, \"3\": {\"N\": 1}}" energy=-29.201902389526367 free_energy=-29.201902389526367 stress="-0.026440907269716263 0.03815539553761482 -0.031382620334625244 0.03815539553761482 -0.004877433646470308 0.0015437878901138902 -0.031382620334625244 0.0015437878901138902 -0.05181991308927536" pbc="T T T"
Al       1.49382403       0.87740192       2.48150489        0      -0.08661639      -0.02748813       0.25595540       2.48428297      -0.46186572       1.22612000
Al      -0.02076738       1.79337852       5.08843294        1       0.00716698       0.60209075      -1.27068292       0.64723212       0.57433319      -2.36004281
N        1.60157223       0.96971682       4.33361322        2       0.49437292       0.53651004      -0.17473337      -0.53882533      -0.70145214       1.74609113
N        0.13924906       1.81421455       1.89535166        3      -0.41492352      -1.11111268       1.18946088      -2.59268999       0.58898461      -0.61216831
4
Lattice="3.128588 0.0 0.0 -1.5642939988088433 2.709436998432005 0.0 0.0 0.0 5.016955" Properties=species:S:1:pos:R:3:spacegroup_kinds:I:1:momenta:R:3:forces:R:3 spacegroup="P 1" unit_cell=conventional occupancy="_JSON {\"0\": {\"Al\": 1}, \"1\": {\"Al\": 1}, \"2\": {\"N\": 1}, \"3\": {\"N\": 1}}" energy=-29.57462501525879 free_energy=-29.57462501525879 stress="-0.02361810952425003 -0.014321306720376015 -0.011128009296953678 -0.014321306720376015 0.015030140057206154 -0.0028546187095344067 -0.011128009296953678 -0.0028546187095344067 -0.014440350234508514" pbc="T T T"
Al       1.53421963       0.88369269       2.53780583        0       1.55944050       0.36820879       1.55971059       0.29264182      -0.24000432      -0.91367817
Al      -0.00048008       1.82107763       4.98837341        1       1.01688601       0.86374269      -2.47525484       0.94369662       0.52251697       0.78486657
N        1.63583965       0.96584647       4.40663186        2      -0.31021944      -0.52489286       1.27117353      -1.15103865      -0.78907311       0.05687751
N       -0.01177521       1.75252285       1.90648730        3      -2.26610715      -0.70705867      -0.35562936      -0.08529956       0.50656039       0.07193386
4
Lattice="3.128588 0.0 0.0 -1.5642939988088433 2.709436998432005 0.0 0.0 0.0 5.016955" Properties=species:S:1:pos:R:3:spacegroup_kinds:I:1:momenta:R:3:forces:R:3 spacegroup="P 1" unit_cell=conventional occupancy="_JSON {\"0\": {\"Al\": 1}, \"1\": {\"Al\": 1}, \"2\": {\"N\": 1}, \"3\": {\"N\": 1}}" energy=-29.3720703125 free_energy=-29.3720703125 stress="-0.005629729479551315 -0.01871933974325657 0.01584952510893345 -0.01871933974325657 -0.032272808253765106 0.017212094739079475 0.01584952510893345 0.017212094739079475 -0.007298020645976067" pbc="T T T"
Al       1.57072836       0.88046442       2.56331976        0      -0.00039243      -0.37629495      -0.57844093      -1.34386492      -0.44065806      -1.50707805
Al       0.05055071       1.86456077       4.94968567        1       0.52727017       0.77034102       1.04960196      -0.49129143      -1.36432922       1.82584858
N        1.58204796       0.88176662       4.44992391        2      -0.27832252      -1.02263338      -0.55459275       0.15003845       1.16375315      -0.85894692
N       -0.12661085       1.75915460       1.88869869        3      -0.24855528       0.62858729       0.08343167       1.68511796       0.64123416       0.54017639
4
Lattice="3.128588 0.0 0.0 -1.5642939988088433 2.709436998432005 0.0 0.0 0.0 5.016955" Properties=species:S:1:pos:R:3:spacegroup_kinds:I:1:momenta:R:3:forces:R:3 spacegroup="P 1" unit_cell=conventional occupancy="_JSON {\"0\": {\"Al\": 1}, \"1\": {\"Al\": 1}, \"2\": {\"N\": 1}, \"3\": {\"N\": 1}}" energy=-29.596923828125 free_energy=-29.596923828125 stress="0.015976419672369957 -0.004505930934101343 0.006018643267452717 -0.004505930934101343 -0.025499599054455757 -0.004597121383994818 0.006018643267452717 -0.004597121383994818 -0.010013984516263008" pbc="T T T"
Al       1.53284808       0.86390067       2.51395076        0      -1.59464547      -0.16469648      -1.74991365      -0.27820677       0.89915955      -0.15420565
Al       0.06317841       1.83227862       5.00948378        1       0.38440009      -1.80666581       1.59449952      -0.58708489      -0.41271830       0.16725063
N        1.58572475       0.89623787       4.41422578        2       0.14193191       1.12964917      -0.09119137       0.25704157       0.38076812       0.00228179
N       -0.08152106       1.83862423       1.90381447        3       1.06831341       0.84171314       0.24660546       0.60825026      -0.86720920      -0.01532652
4
Lattice="3.128588 0.0 0.0 -1.5642939988088433 2.709436998432005 0.0 0.0 0.0 5.016955" Properties=species:S:1:pos:R:3:spacegroup_kinds:I:1:momenta:R:3:forces:R:3 spacegroup="P 1" unit_cell=conventional occupancy="_JSON {\"0\": {\"Al\": 1}, \"1\": {\"Al\": 1}, \"2\": {\"N\": 1}, \"3\": {\"N\": 1}}" energy=-29.46255111694336 free_energy=-29.46255111694336 stress="-0.005696965381503105 0.010849437676370144 -0.003906631376594305 0.010849437676370144 -0.01913374662399292 -0.012703169137239456 -0.003906631376594305 -0.012703169137239456 -0.011871369555592537" pbc="T T T"
Al       1.48347330       0.88264397       2.44527927        0      -0.30454526       1.01149553      -0.60004550       0.88393152       0.95768440       1.70777023
Al       0.06164409       1.77681258       5.07306071        1      -0.86715263      -0.75617359       0.43048977      -0.30080622       0.71655309      -1.72279978
N        1.61717710       0.94947181       4.40498427        2       0.38645884       0.04830077       0.18623270      -0.07233982      -0.67486006       0.48910689
N       -0.01486932       1.85626148       1.92266702        3       0.78523902      -0.30362266      -0.01667699      -0.51078546      -0.99937749      -0.47407705
4
Lattice="3.128588 0.0 0.0 -1.5642939988088433 2.709436998432005 0.0 0.0 0.0 5.016955" Properties=species:S:1:pos:R:3:spacegroup_kinds:I:1:momenta:R:3:forces:R:3 spacegroup="P 1" unit_cell=conventional occupancy="_JSON {\"0\": {\"Al\": 1}, \"1\": {\"Al\": 1}, \"2\": {\"N\": 1}, \"3\": {\"N\": 1}}" energy=-29.518749237060547 free_energy=-29.518749237060547 stress="-0.02337058261036873 0.006540224421769381 -0.01609823666512966 0.006540224421769381 0.006697411648929119 -0.00048231903929263353 -0.01609823666512966 -0.00048231903929263353 -0.02216101437807083" pbc="T T T"
Al       1.50607637       0.94974321       2.46463695        0       1.15921323       0.62635159       1.50689933       1.24247718      -0.60704541       1.15697181
Al       0.01335469       1.75088040       5.06242875        1      -0.91112034       0.14825272      -0.88962594       0.51474494       0.69610715      -1.43088889
N        1.62637959       0.90489617       4.42127856        2      -0.14223498      -0.64065037       0.21498356      -0.71771675      -0.51824224      -0.07984860
N        0.02538009       1.82158363       1.88963026        3      -0.10585790      -0.13395390      -0.83225695      -1.03950548       0.42918032       0.35376498
4
Lattice="3.128588 0.0 0.0 -1.5642939988088433 2.709436998432005 0.0 0.0 0.0 5.016955" Properties=species:S:1:pos:R:3:spacegroup_kinds:I:1:momenta:R:3:forces:R:3 spacegroup="P 1" unit_cell=conventional occupancy="_JSON {\"0\": {\"Al\": 1}, \"1\": {\"Al\": 1}, \"2\": {\"N\": 1}, \"3\": {\"N\": 1}}" energy=-29.60500717163086 free_energy=-29.60500717163086 stress="0.0015957392752170563 -0.006785853300243616 -0.003095494117587805 -0.006785853300243616 0.0017805051757022738 0.0017242695903405547 -0.003095494117587805 0.0017242695903405547 -0.023113667964935303" pbc="T T T"
Al       1.56693924       0.93861029       2.54470911        0       1.44875313      -0.98943873       1.48437466      -0.01659237      -0.29131603      -1.20300603
Al      -0.01304570       1.78057346       4.99752452        1       0.01689822       1.11024941      -1.70730054       0.38438857       0.02358357       0.50760323
N        1.58384205       0.87104970       4.42155571        2      -0.67927478      -0.02704895      -0.19037143      -0.39237005       0.15177786      -0.39792430
N        0.00122210       1.81989281       1.85992051        3      -0.78637659      -0.09376170       0.41329731       0.02457400       0.11595457       1.09332716
4
Lattice="3.128588 0.0 0.0 -1.5642939988088433 2.709436998432005 0.0 0.0 0.0 5.016955" Properties=species:S:1:pos:R:3:spacegroup_kinds:I:1:momenta:R:3:forces:R:3 spacegroup="P 1" unit_cell=conventional occupancy="_JSON {\"0\": {\"Al\": 1}, \"1\": {\"Al\": 1}, \"2\": {\"N\": 1}, \"3\": {\"N\": 1}}" energy=-29.470203399658203 free_energy=-29.470203399658203 stress="0.0032031929586082697 -0.017801685258746147 0.011838342063128948 -0.017801685258746147 -0.0413491316139698 0.007359767332673073 0.011838342063128948 0.007359767332673073 -0.005160222761332989" pbc="T T T"
Al       1.62755627       0.89950076       2.54516755        0       1.04970811      -0.99981880      -0.80202927      -1.41064143       0.15933347      -0.91779220
Al      -0.00757057       1.81703572       4.95606283        1      -0.03757929       0.11959846      -0.16512803      -0.26242808      -0.84351516       1.41445947
N        1.52756232       0.85151206       4.42065484        2      -0.42752244       0.29023070      -0.07965737       0.31765711       0.98894644      -0.00115521
N       -0.06966668       1.84442116       1.93994532        3      -0.58460640       0.58998966       1.04681477       1.35541272      -0.30476481      -0.49551207
4
Lattice="3.128588 0.0 0.0 -1.5642939988088433 2.709436998432005 0.0 0.0 0.0 5.016955" Properties=species:S:1:pos:R:3:spacegroup_kinds:I:1:momenta:R:3:forces:R:3 spacegroup="P 1" unit_cell=conventional occupancy="_JSON {\"0\": {\"Al\": 1}, \"1\": {\"Al\": 1}, \"2\": {\"N\": 1}, \"3\": {\"N\": 1}}" energy=-29.452987670898438 free_energy=-29.452987670898438 stress="-0.013225060887634754 -0.023749997839331627 0.007911445572972298 -0.023749997839331627 -0.04793199524283409 -0.007333280984312296 0.007911445572972298 -0.007333280984312296 0.028632791712880135" pbc="T T T"
Al       1.63184040       0.85684027       2.46693550        0      -0.97589046      -0.55899538      -1.34838434      -1.39010572       1.11026502       1.17303681
Al      -0.02377744       1.82170281       4.98999599        1      -0.28018867       0.45883556       1.28013583      -0.08532900       0.08283629       0.34697774
N        1.52792697       0.92957752       4.44479003        2       0.11446500       0.97873201       0.08012593       0.22036548      -0.17398910       0.05598760
N       -0.04718875       1.83921502       2.00086010        3       1.14161409      -0.87857218      -0.01187727       1.25506926      -1.01911223      -1.57600188
4
Lattice="3.128588 0.0 0.0 -1.5642939988088433 2.709436998432005 0.0 0.0 0.0 5.016955" Properties=species:S:1:pos:R:3:spacegroup_kinds:I:1:momenta:R:3:forces:R:3 spacegroup="P 1" unit_cell=conventional occupancy="_JSON {\"0\": {\"Al\": 1}, \"1\": {\"Al\": 1}, \"2\": {\"N\": 1}, \"3\": {\"N\": 1}}" energy=-29.53631591796875 free_energy=-29.53631591796875 stress="-0.019857747480273247 0.013828879222273827 -0.005717373453080654 0.013828879222273827 -0.0031642301473766565 -0.0016709696501493454 -0.005717373453080654 -0.0016709696501493454 -0.0062606120482087135" pbc="T T T"
Al       1.56291508       0.86348347       2.43836894        0      -1.44558844       0.38889124       0.34074922       0.67285985       0.11609307       1.45909715
Al      -0.01834143       1.83613137       5.05736573        1       0.19731482      -0.00921531       1.04742178       0.06595249       0.15003553      -1.19267416
N        1.54726698       0.95741147       4.47045640        2      -0.01023985       0.05685008       0.14844045       0.09761429      -0.44420874      -0.65174770
N        0.05576963       1.77068662       1.90062727        3       1.25851346      -0.43652601      -1.53661128      -0.83642650       0.17808014       0.38532463
4
Lattice="3.128588 0.0 0.0 -1.5642939988088433 2.709436998432005 0.0 0.0 0.0 5.016955" Properties=species:S:1:pos:R:3:spacegroup_kinds:I:1:momenta:R:3:forces:R:3 spacegroup="P 1" unit_cell=conventional occupancy="_JSON {\"0\": {\"Al\": 1}, \"1\": {\"Al\": 1}, \"2\": {\"N\": 1}, \"3\": {\"N\": 1}}" energy=-29.5310001373291 free_energy=-29.5310001373291 stress="-0.01829415000975132 0.015707483515143394 -0.011607656255364418 0.015707483515143394 0.0031480302568525076 0.004605628550052643 -0.011607656255364418 0.004605628550052643 -0.01725897751748562" pbc="T T T"
Al       1.54701074       0.87273545       2.46070913        0       0.71855697      -0.11584375       0.49435414       1.07476640      -0.28505668       1.06925476
Al      -0.01761629       1.84389395       5.05391122        1       0.19346416       0.17720428      -0.69190291       0.23187700      -0.07941815      -1.16825128
N        1.56395353       0.94331121       4.45961400        2       0.32487446      -0.12409419      -0.51346163      -0.11547132      -0.20503426      -0.72920161
N        0.06831350       1.75176764       1.87546338        3      -1.23689564       0.06273364       0.71101054      -1.19117200       0.56950915       0.82819837
4
Lattice="3.128588 0.0 0.0 -1.5642939988088433 2.709436998432005 0.0 0.0 0.0 5.016955" Properties=species:S:1:pos:R:3:spacegroup_kinds:I:1:momenta:R:3:forces:R:3 spacegroup="P 1" unit_cell=conventional occupancy="_JSON {\"0\": {\"Al\": 1}, \"1\": {\"Al\": 1}, \"2\": {\"N\": 1}, \"3\": {\"N\": 1}}" energy=-29.61321258544922 free_energy=-29.61321258544922 stress="-0.00838163960725069 -0.004276797641068697 0.0054928092285990715 -0.004276797641068697 -0.013937133364379406 0.001480484614148736 0.0054928092285990715 0.001480484614148736 0.012475378811359406" pbc="T T T"
Al       1.57767907       0.87033376       2.48321565        0       0.42145907      -0.10086019       0.75449433      -0.50598758       0.14215438       0.64867699
Al       0.00878681       1.84488740       5.00616575        1       0.94842560       0.04829665      -0.67234772      -0.28190929      -0.37569889       0.05942772
N        1.54733736       0.91884312       4.41695262        2      -0.50233617      -0.06173844      -0.86681628       0.26756674       0.16352622       0.34766686
N       -0.02491942       1.77881442       1.96659672        3      -0.86754852       0.11430198       0.78466980       0.52033019       0.07001823      -1.05577135
4
Lattice="3.128588 0.0 0.0 -1.5642939988088433 2.709436998432005 0.0 0.0 0.0 5.016955" Properties=species:S:1:pos:R:3:spacegroup_kinds:I:1:momenta:R:3:forces:R:3 spacegroup="P 1" unit_cell=conventional occupancy="_JSON {\"0\": {\"Al\": 1}, \"1\": {\"Al\": 1}, \"2\": {\"N\": 1}, \"3\": {\"N\": 1}}" energy=-29.557838439941406 free_energy=-29.557838439941406 stress="-0.016363730654120445 -0.0029476103372871876 0.012903819791972637 -0.0029476103372871876 -0.006207599304616451 0.0015375753864645958 0.012903819791972637 0.0015375753864645958 -0.0027147650253027678" pbc="T T T"
Al       1.59068814       0.88023428       2.52274592        0      -0.41625553       0.17887058       0.33160931      -0.90884465      -0.14031178      -0.36867917
Al       0.01872293       1.83477378       4.97781986        1       0.14973959      -0.20763051      -0.17578559      -0.72829723      -0.10046344       0.72652870
N        1.52039167       0.92489995       4.39464378        2       0.19754397       0.25939894       0.47781776       0.72475982      -0.09604947       0.71574271
N       -0.04216868       1.77342026       1.96745702        3       0.06897192      -0.23063904      -0.63364135       0.91238201       0.33682489      -1.07359254
4
Lattice="3.128588 0.0 0.0 -1.5642939988088433 2.709436998432005 0.0 0.0 0.0 5.016955" Properties=species:S:1:pos:R:3:spacegroup_kinds:I:1:momenta:R:3:forces:R:3 spacegroup="P 1" unit_cell=conventional occupancy="_JSON {\"0\": {\"Al\": 1}, \"1\": {\"Al\": 1}, \"2\": {\"N\": 1}, \"3\": {\"N\": 1}}" energy=-29.621112823486328 free_energy=-29.621112823486328 stress="-0.02150072529911995 0.005276472773402929 -0.0032673808746039867 0.005276472773402929 0.01065765880048275 0.0019249004544690251 -0.0032673808746039867 0.0019249004544690251 -0.0015898317797109485" pbc="T T T"
Al       1.54767650       0.89587761       2.50832863        0      -0.85810031       0.46896539      -1.00003172       0.39160329      -0.39028996      -0.15032564
Al       0.00665802       1.82067516       5.00342494        1      -0.72966975      -0.11082636       1.46536950      -0.00949838       0.22696754       0.34862903
N        1.57185930       0.94293298       4.45440722        2       0.62349901      -0.37686546       0.64593146      -0.01969832      -0.43335095      -0.83890021
N        0.01256026       1.75229420       1.88600534        3       0.96427102       0.01872639      -1.11126917      -0.36240652       0.59667349       0.64059681
4
Lattice="3.128588 0.0 0.0 -1.5642939988088433 2.709436998432005 0.0 0.0 0.0 5.016955" Properties=species:S:1:pos:R:3:spacegroup_kinds:I:1:momenta:R:3:forces:R:3 spacegroup="P 1" unit_cell=conventional occupancy="_JSON {\"0\": {\"Al\": 1}, \"1\": {\"Al\": 1}, \"2\": {\"N\": 1}, \"3\": {\"N\": 1}}" energy=-29.520856857299805 free_energy=-29.520856857299805 stress="-0.01404764223843813 0.011821000836789608 -0.014255666173994541 0.011821000836789608 -0.0056148492731153965 0.009361480362713337 -0.014255666173994541 0.009361480362713337 -0.019571062177419662" pbc="T T T"
Al       1.52999425       0.91403916       2.46474569        0       0.09545019      -0.23101241      -1.18071488       1.21875679      -0.63577145       0.99290127
Al      -0.00890655       1.82180735       5.05208974        1       0.31216892      -0.10747450       0.45537831       0.39472908      -0.38378486      -1.12710428
N        1.59437714       0.88605552       4.45928982        2      -0.04799002      -0.53350337      -0.20523293      -0.40810728       0.35578963      -0.79021502
N        0.05384450       1.77207216       1.87145001        3      -0.35962909       0.87199024       0.93056962      -1.20537853       0.66376686       0.92441809
4
Lattice="3.128588 0.0 0.0 -1.5642939988088433 2.709436998432005 0.0 0.0 0.0 5.016955" Properties=species:S:1:pos:R:3:spacegroup_kinds:I:1:momenta:R:3:forces:R:3 spacegroup="P 1" unit_cell=conventional occupancy="_JSON {\"0\": {\"Al\": 1}, \"1\": {\"Al\": 1}, \"2\": {\"N\": 1}, \"3\": {\"N\": 1}}" energy=-29.618785858154297 free_energy=-29.618785858154297 stress="0.010117698460817337 -0.001821932033635676 -0.0018730517476797104 -0.001821932033635676 -0.024783186614513397 0.004591122269630432 -0.0018730517476797104 0.004591122269630432 2.635778764670249e-05" pbc="T T T"
Al       1.53818030       0.90928016       2.47247626        0       0.23228606      -0.27447328       1.41733348       0.21200997       0.18702221       0.85530657
Al       0.01802690       1.81430745       5.03506524        1       0.60360854      -0.42930298      -1.11140899       0.03760196      -0.69444323      -0.55142426
N        1.59518015       0.85128046       4.42414646        2       0.09084570       0.02420722      -0.77345398      -0.19470279       0.84070694       0.01228096
N       -0.01452981       1.83034436       1.92467359        3      -0.92674030       0.67956902       0.46752957      -0.05490906      -0.33328611      -0.31616312
4
Lattice="3.128588 0.0 0.0 -1.5642939988088433 2.709436998432005 0.0 0.0 0.0 5.016955" Properties=species:S:1:pos:R:3:spacegroup_kinds:I:1:momenta:R:3:forces:R:3 spacegroup="P 1" unit_cell=conventional occupancy="_JSON {\"0\": {\"Al\": 1}, \"1\": {\"Al\": 1}, \"2\": {\"N\": 1}, \"3\": {\"N\": 1}}" energy=-29.62374496459961 free_energy=-29.62374496459961 stress="0.0043003312312066555 -0.008672723546624184 0.002882234286516905 -0.008672723546624184 -0.006944037973880768 -0.0044347853399813175 0.002882234286516905 -0.0044347853399813175 -0.014838446862995625" pbc="T T T"
Al       1.54321203       0.89379622       2.53645982        0      -0.00705399      -0.41529097       0.79445099      -0.25250438       0.39303011      -0.87833524
Al       0.03580900       1.79893951       4.98957807        1       0.09337942      -0.29525184      -0.61192112      -0.16601363       0.14058065       0.62744498
N        1.59619756       0.90645097       4.40111856        2      -0.02189844       1.09350715       0.27120845      -0.08899618      -0.09593728       0.34910449
N       -0.05911262       1.83464209       1.91219263        3      -0.06442699      -0.38296435      -0.45373831       0.50751424      -0.43767339      -0.09821472
