4
Lattice="3.128588 0.0 0.0 -1.5642939988088433 2.709436998432005 0.0 0.0 0.0 5.016955" Properties=species:S:1:pos:R:3:spacegroup_kinds:I:1:forces:R:3 spacegroup="P 1" unit_cell=conventional occupancy="_JSON {\"0\": {\"Al\": 1}, \"1\": {\"Al\": 1}, \"2\": {\"N\": 1}, \"3\": {\"N\": 1}}" energy=-29.673717498779297 free_energy=-29.673717498779297 stress="-0.0022253680508583784 -1.3539204246626468e-06 7.99836463727388e-09 -1.3539204246626468e-06 -0.0022273617796599865 -4.483490556594916e-08 7.99836463727388e-09 -4.483490556594916e-08 -0.005453707184642553" pbc="T T T"
Al       1.56429556       0.90314476       2.50490041        0      -0.00003408       0.00002025       0.00553079
Al      -0.00000156       1.80629224       5.01337791        1       0.00003424      -0.00001916       0.00552446
N        1.56429556       0.90314476       4.41849749        2      -0.00003569       0.00001969      -0.00553022
N       -0.00000156       1.80629224       1.91001999        3       0.00003553      -0.00002069      -0.00552519
