13
Lattice="7.26870274 0.0 0.0 3.634351370000001 6.294881225397555 0.0 3.634351370000001 2.0982937417991856 5.934870934989993" Properties=species:S:1:pos:R:3:spacegroup_kinds:I:1:momenta:R:3:forces:R:3 spacegroup="P 1" unit_cell=conventional occupancy="_JSON {\"0\": {\"Li\": 1}, \"1\": {\"Li\": 1}, \"2\": {\"Li\": 1}, \"3\": {\"Li\": 1}, \"4\": {\"Li\": 1}, \"5\": {\"Li\": 1}, \"6\": {\"P\": 1}, \"7\": {\"S\": 1}, \"8\": {\"S\": 1}, \"9\": {\"S\": 1}, \"10\": {\"S\": 1}, \"11\": {\"S\": 1}, \"12\": {\"Cl\": 1}}" energy=-53.689334869384766 free_energy=-53.689334869384766 stress="-0.0052445270121097565 0.0009017867268994451 -0.0011717192828655243 0.0009017867268994451 0.0030504530295729637 -0.005721266847103834 -0.0011717192828655243 -0.005721266847103834 0.00585173349827528" pbc="T T T"
Li       9.76606104       6.73801565       2.31130908        0       0.14956183      -0.22631026       0.38149537      -0.16827701       0.24794056      -0.07042494
Li      12.07007472       4.85854492       5.88895726        1       0.93962898      -0.30867193      -0.87807152       0.37913942       0.18762757       0.26182556
Li       9.44903951       4.52857548       5.43695406        2       0.06098855      -1.33454329       0.23550652      -0.35570940       0.44837472       0.09463616
Li      12.81443295       7.34404658       3.68629526        3       0.11828927       0.52593269      -0.62487925      -0.04244620       0.32602459      -0.03565607
Li      11.15582556       3.98859178       3.44877599        4       0.01165764      -0.22126665      -0.04265162       0.27345666       0.04483098      -0.21052726
Li       9.85403790       7.85248603       5.76649846        5      -0.11679178      -0.36103343       0.27710691       0.16854367       0.03235143      -0.07323925
P        7.32674807       4.22572322       3.00853163        6       0.16729138      -1.71550088       0.27642583      -0.88093162      -0.66531050       0.74116445
S        7.16611786       6.15515332       2.38744246        7      -1.17788380       1.80560553      -0.09140351       0.42320615       0.34333566      -0.35641304
S        9.06666408       3.36230431       2.43677223        8       1.61858879       0.69762362      -0.76453480       0.55072737      -0.39909905      -0.46859863
S        5.78886876       3.16037921       2.15969756        9      -1.01873235       1.66926608      -0.96805754      -0.29346767      -0.10100751      -0.25929710
S        7.13872250       3.97144869       5.07925779       10       0.75876481      -0.41659382       0.84496252      -0.11069050       0.31386501      -0.10207927
S       10.92177005       6.18998951       4.25662914       11      -0.71481394       0.83298118       1.11240632      -0.30060434      -0.38398236       0.65169609
Cl      -0.08458607       0.67359930      -0.00110250       12      -0.79654938      -0.94748886       0.24169483       0.35705352      -0.39495102      -0.17308667
