13
Lattice="7.26870274 0.0 0.0 3.634351370000001 6.294881225397555 0.0 3.634351370000001 2.0982937417991856 5.934870934989993" Properties=species:S:1:pos:R:3:spacegroup_kinds:I:1:momenta:R:3:forces:R:3 spacegroup="P 1" unit_cell=conventional occupancy="_JSON {\"0\": {\"Li\": 1}, \"1\": {\"Li\": 1}, \"2\": {\"Li\": 1}, \"3\": {\"Li\": 1}, \"4\": {\"Li\": 1}, \"5\": {\"Li\": 1}, \"6\": {\"P\": 1}, \"7\": {\"S\": 1}, \"8\": {\"S\": 1}, \"9\": {\"S\": 1}, \"10\": {\"S\": 1}, \"11\": {\"S\": 1}, \"12\": {\"Cl\": 1}}" energy=-53.3634147644043 free_energy=-53.3634147644043 stress="-0.0007941995281726122 -2.2924231757315283e-07 -1.6749234532653645e-07 -2.2924231757315283e-07 -0.0007939469069242477 -1.1506352137757858e-07 -1.6749234532653645e-07 -1.1506352137757858e-07 -0.0007939208298921585" pbc="T T T"
Li       9.25387995       7.24703237       3.10460814        0       0.00000000       0.00000000       0.00000000       0.00422566      -0.00243452       0.00344779
Li      12.55222827       5.34273008       5.79769826        1       0.00000000       0.00000000       0.00000000      -0.00421060       0.00243269      -0.00344097
Li       9.25387995       5.34273008       5.79769826        2       0.00000000       0.00000000       0.00000000       0.00422465       0.00243895      -0.00344686
Li      12.55222827       7.24703237       3.10460814        3       0.00000000       0.00000000       0.00000000      -0.00421226      -0.00243118       0.00344098
Li      10.90305411       4.39057894       3.10460814        4       0.00000000       0.00000000       0.00000000       0.00000250       0.00487579       0.00344830
Li      10.90305411       8.19918351       5.79769826        5       0.00000000       0.00000000       0.00000000       0.00000226      -0.00486325      -0.00344108
P        7.26870274       4.19658748       2.96743547        6       0.00000000       0.00000000       0.00000000       0.00008517       0.00004653       0.00003599
S        7.26870637       6.13578650       2.28182731        7       0.00000000       0.00000000       0.00000000      -0.00001839      -0.01090859       0.00384724
S        8.94810016       3.22699113       2.28182731        8       0.00000000       0.00000000       0.00000000      -0.00945792       0.00544035       0.00384700
S        5.58931258       3.22699113       2.28182731        9       0.00000000       0.00000000       0.00000000       0.00937788       0.00541264       0.00383012
S        7.26870637       4.19658958       5.02426588       10       0.00000000       0.00000000       0.00000000      -0.00001901      -0.00000974      -0.01156950
S       10.90305411       6.29488123       4.45115320       11       0.00000000       0.00000000       0.00000000      -0.00000146      -0.00000035      -0.00000008
Cl       0.00000000       0.00000000       0.00000000       12       0.00000000       0.00000000       0.00000000       0.00000151       0.00000076       0.00000108
13
Lattice="7.26870274 0.0 0.0 3.634351370000001 6.294881225397555 0.0 3.634351370000001 2.0982937417991856 5.934870934989993" Properties=species:S:1:pos:R:3:spacegroup_kinds:I:1:momenta:R:3:forces:R:3 spacegroup="P 1" unit_cell=conventional occupancy="_JSON {\"0\": {\"Li\": 1}, \"1\": {\"Li\": 1}, \"2\": {\"Li\": 1}, \"3\": {\"Li\": 1}, \"4\": {\"Li\": 1}, \"5\": {\"Li\": 1}, \"6\": {\"P\": 1}, \"7\": {\"S\": 1}, \"8\": {\"S\": 1}, \"9\": {\"S\": 1}, \"10\": {\"S\": 1}, \"11\": {\"S\": 1}, \"12\": {\"Cl\": 1}}" energy=-53.32844924926758 free_energy=-53.32844924926758 stress="-0.001920957351103425 0.0011212450917810202 0.0009712670580483973 0.0011212450917810202 -0.0010513889137655497 -0.0008114373777061701 0.0009712670580483973 -0.0008114373777061701 -0.0014660072047263384" pbc="T T T"
Li       9.27524857       7.24089059       3.14381558        0       0.21263757      -0.11465432       0.44727316      -0.19811982       0.11126514      -0.15608576
Li      12.55696204       5.34282246       5.80935630        1       0.08238849       0.00646335      -0.05790941       0.01995272      -0.01040126      -0.10443389
Li       9.27720108       5.39435386       5.84506998        2       0.11844537       0.33218853       0.25761842      -0.13053328      -0.06305218      -0.14648278
Li      12.56575878       7.27202349       3.13529883        3       0.01516778       0.17306573       0.34186995       0.03787241      -0.06596511       0.02558481
Li      10.87486378       4.39455217       3.09823121        4       0.11894605      -0.04572031      -0.11327902       0.08469915      -0.01705653      -0.02174914
Li      10.87682119       8.13883660       5.79790162        5      -0.11248793      -0.44621060      -0.10524748      -0.00699546       0.25959483       0.06859097
P        7.28609312       4.19430965       2.96542403        6       0.45864470       0.04393542       0.01893979      -0.58052176       0.31507233       0.29842728
S        7.25259306       6.13523416       2.27102379        7      -0.73428634       0.15701162      -0.35319833       0.17545418      -0.01036236       0.07566468
S        8.92683738       3.22587825       2.27082837        8      -0.40955908      -0.23333709      -0.64742167       0.36994362      -0.16128844      -0.07707766
S        5.59026143       3.24954429       2.26874054        9       0.27390085       1.61055752      -0.67339789       0.02157471      -0.13581952       0.21230136
S        7.27312711       4.19500195       5.03373889       10      -0.34092371      -0.58810706       0.89221458       0.11400852      -0.07041961      -0.17365900
S       10.91012305       6.28755229       4.44673975       11      -0.06065466      -0.16963726      -0.23134289       0.06412469      -0.10295191       0.03081389
Cl       0.00575303      -0.01177689       0.00461080       12       0.37778092      -0.72555551       0.22388078       0.02854026      -0.04861525      -0.03189471
13
Lattice="7.26870274 0.0 0.0 3.634351370000001 6.294881225397555 0.0 3.634351370000001 2.0982937417991856 5.934870934989993" Properties=species:S:1:pos:R:3:spacegroup_kinds:I:1:momenta:R:3:forces:R:3 spacegroup="P 1" unit_cell=conventional occupancy="_JSON {\"0\": {\"Li\": 1}, \"1\": {\"Li\": 1}, \"2\": {\"Li\": 1}, \"3\": {\"Li\": 1}, \"4\": {\"Li\": 1}, \"5\": {\"Li\": 1}, \"6\": {\"P\": 1}, \"7\": {\"S\": 1}, \"8\": {\"S\": 1}, \"9\": {\"S\": 1}, \"10\": {\"S\": 1}, \"11\": {\"S\": 1}, \"12\": {\"Cl\": 1}}" energy=-53.27561569213867 free_energy=-53.27561569213867 stress="-0.0030655283480882645 -0.0011743842624127865 -0.0004275700484868139 -0.0011743842624127865 -0.0005054028006270528 -0.0006021260633133352 -0.0004275700484868139 -0.0006021260633133352 0.001263843267224729" pbc="T T T"
Li       9.27123958       7.24057622       3.17836179        0      -0.48904600       0.08718073       0.03085773      -0.26377237       0.17825919      -0.22131911
Li      12.54633472       5.31287894       5.73954914        1      -0.09933630      -0.11737066      -0.60351558       0.10597937      -0.07023535       0.14021793
Li       9.27666973       5.40633788       5.83535487        2      -0.03526344       0.02777306      -0.19882934      -0.15276363      -0.06948362      -0.09774502
Li      12.55629657       7.29844579       3.16064717        3      -0.01141168      -0.03102749       0.20203221       0.06114045      -0.07239170       0.02639009
Li      10.89535621       4.37220256       3.10200544        4       0.13224509      -0.16279563      -0.13733238      -0.01370065      -0.03497233      -0.05816513
Li      10.84795782       8.12149192       5.80840252        5      -0.38009994       0.17956426       0.30928881      -0.01496893       0.23508997       0.04413801
P        7.29219401       4.21164941       2.96875176        6      -0.06926376       0.17424556       0.54229499      -0.21487430       0.23675537       0.41021508
S        7.20446850       6.15266875       2.26891335        7      -1.48825225       0.47999214      -0.12930214       0.45789903      -0.03232276       0.21201587
S        8.92332454       3.20367354       2.23686528        8      -0.10349815      -0.82827462      -0.99870899       0.12990800       0.22297509       0.08914861
S        5.60955912       3.29915084       2.26475627        9       0.87479704       0.77735456      -0.12202492      -0.25315198      -0.51756382       0.14651938
S        7.26842569       4.18354033       5.06166591       10       0.48686202       0.26473799       0.46564380       0.25246608      -0.05221780      -0.56274807
S       10.93183804       6.26496668       4.44404322       11       0.74663097      -0.72295244       0.24537947      -0.16283067       0.02225607      -0.03218497
Cl       0.02101073      -0.03067206       0.01612879       12       0.43563640      -0.12842744       0.39421635       0.06866964      -0.04614829      -0.09648276
13
Lattice="7.26870274 0.0 0.0 3.634351370000001 6.294881225397555 0.0 3.634351370000001 2.0982937417991856 5.934870934989993" Properties=species:S:1:pos:R:3:spacegroup_kinds:I:1:momenta:R:3:forces:R:3 spacegroup="P 1" unit_cell=conventional occupancy="_JSON {\"0\": {\"Li\": 1}, \"1\": {\"Li\": 1}, \"2\": {\"Li\": 1}, \"3\": {\"Li\": 1}, \"4\": {\"Li\": 1}, \"5\": {\"Li\": 1}, \"6\": {\"P\": 1}, \"7\": {\"S\": 1}, \"8\": {\"S\": 1}, \"9\": {\"S\": 1}, \"10\": {\"S\": 1}, \"11\": {\"S\": 1}, \"12\": {\"Cl\": 1}}" energy=-53.221981048583984 free_energy=-53.221981048583984 stress="-0.0016856689471751451 -0.003601630451157689 -0.000554526865016669 -0.003601630451157689 0.00269220769405365 0.0015171566046774387 -0.000554526865016669 0.0015171566046774387 -0.001676476444117725" pbc="T T T"
Li       9.17502297       7.28819206       3.22312525        0      -0.44046090       0.37022884       0.32631348      -0.02715559       0.03501230       0.00185250
Li      12.57267982       5.28610316       5.68959092        1       0.16275635       0.04224841      -0.05829235      -0.04014014       0.00433247       0.28322756
Li       9.26199820       5.40819013       5.84059401        2      -0.01745957       0.05189159       0.00488593       0.03609838       0.03103841      -0.13905524
Li      12.51170416       7.28599301       3.21603520        3      -0.35752660       0.17710513       0.08435614       0.30151558       0.17537564      -0.18823771
Li      10.90763829       4.36890982       3.06204915        4      -0.17158592      -0.21468345      -0.11546491      -0.09007054      -0.03292382      -0.09364086
Li      10.74896711       8.19907431       5.87522902        5      -0.71057678       0.51823386       0.47947221      -0.04635534      -0.19910291      -0.30659217
P        7.29391313       4.21967243       3.01204606        6       0.27435988       0.33512130       1.35697363       0.03197916       0.08195376      -0.82686400
S        7.17748150       6.16482012       2.27373929        7       0.06907889      -0.39468150       0.29108265       0.41587812      -0.16938685       0.55127895
S        8.91681004       3.19677317       2.19295737        8      -0.44693845       0.55311134      -1.01865366      -0.14308798       0.38739288       0.49437404
S        5.62472703       3.29058027       2.26016244        9       0.03498848      -0.66416801       0.12438090      -0.19757099      -0.39665085       0.36227950
S        7.28614931       4.20809956       5.06091074       10       0.61032983       0.86121856      -0.34501044       0.28904817      -0.13865758      -0.11892024
S       10.95503318       6.23452693       4.44049299       11       0.24678815      -1.03080681      -0.22390624      -0.70452881       0.30724123       0.14367288
Cl       0.04155398      -0.04616820       0.00551766       12       0.74624664      -0.60481926      -0.90613733       0.17439002      -0.08562473      -0.16337508
13
Lattice="7.26870274 0.0 0.0 3.634351370000001 6.294881225397555 0.0 3.634351370000001 2.0982937417991856 5.934870934989993" Properties=species:S:1:pos:R:3:spacegroup_kinds:I:1:momenta:R:3:forces:R:3 spacegroup="P 1" unit_cell=conventional occupancy="_JSON {\"0\": {\"Li\": 1}, \"1\": {\"Li\": 1}, \"2\": {\"Li\": 1}, \"3\": {\"Li\": 1}, \"4\": {\"Li\": 1}, \"5\": {\"Li\": 1}, \"6\": {\"P\": 1}, \"7\": {\"S\": 1}, \"8\": {\"S\": 1}, \"9\": {\"S\": 1}, \"10\": {\"S\": 1}, \"11\": {\"S\": 1}, \"12\": {\"Cl\": 1}}" energy=-53.19259262084961 free_energy=-53.19259262084961 stress="-0.0025537360925227404 -0.0032919859513640404 -0.0009097859147004783 -0.0032919859513640404 0.002424593549221754 0.0026369730476289988 -0.0009097859147004783 0.0026369730476289988 -0.005062039475888014" pbc="T T T"
Li       9.11956131       7.31746050       3.23805999        0      -0.06958324       0.05790130       0.05372739       0.09362222      -0.08695388       0.14249887
Li      12.56842705       5.29763957       5.68367972        1      -0.32037581       0.05558170       0.14862722       0.00772649      -0.03317000       0.25788021
Li       9.24707041       5.42989552       5.86066548        2      -0.10097893       0.14572917       0.06846732       0.16082340       0.11919218      -0.22088756
Li      12.54405653       7.29980736       3.22566393        3       0.34073599       0.15270686      -0.05879912       0.14901139       0.14388403      -0.06693698
Li      10.86651289       4.30170017       3.03966759        4      -0.37803063      -0.34950651      -0.00002630       0.03787569       0.19050694       0.10562682
Li      10.66059309       8.24643070       5.90826849        5      -0.58529374       0.16881187       0.07883458      -0.09088571      -0.33661291      -0.45552886
P        7.29297455       4.21089290       3.03834385        6      -0.07036418      -0.43407339      -0.32016025      -0.18593974       0.16018477      -1.34258103
S        7.16690195       6.14714868       2.28212859        7      -0.26634400      -0.26084944      -0.14181737       0.41348070      -0.08239536       0.58706331
S        8.89404312       3.21811891       2.17794650        8      -1.06336525       0.74754259       0.30881294       0.01687433       0.13229170       0.45638400
S        5.63091880       3.26497152       2.26474566        9       0.59899102      -0.97135972       0.14236602      -0.17173848      -0.26906288       0.48824257
S        7.31966539       4.22718000       5.05686438       10       1.24227422       0.11689115       0.07350427       0.13171244      -0.18936823       0.31718236
S       10.95822441       6.22927393       4.44416999       11      -0.04986218       0.20098849       0.39507909      -0.81086898       0.36464655      -0.02992854
Cl       0.06719055      -0.04211797      -0.02479616       12       0.72219670       0.36963592      -0.74861581       0.24830621      -0.11314293      -0.23901521
13
Lattice="7.26870274 0.0 0.0 3.634351370000001 6.294881225397555 0.0 3.634351370000001 2.0982937417991856 5.934870934989993" Properties=species:S:1:pos:R:3:spacegroup_kinds:I:1:momenta:R:3:forces:R:3 spacegroup="P 1" unit_cell=conventional occupancy="_JSON {\"0\": {\"Li\": 1}, \"1\": {\"Li\": 1}, \"2\": {\"Li\": 1}, \"3\": {\"Li\": 1}, \"4\": {\"Li\": 1}, \"5\": {\"Li\": 1}, \"6\": {\"P\": 1}, \"7\": {\"S\": 1}, \"8\": {\"S\": 1}, \"9\": {\"S\": 1}, \"10\": {\"S\": 1}, \"11\": {\"S\": 1}, \"12\": {\"Cl\": 1}}" energy=-53.21239471435547 free_energy=-53.21239471435547 stress="-0.004441265016794205 -0.0007379658054560423 0.000603823340497911 -0.0007379658054560423 -0.00039416563231498003 0.0016803886974230409 0.000603823340497911 0.0016803886974230409 -0.0027069137431681156" pbc="T T T"
Li       9.15937390       7.30902897       3.20107221        0       0.26305923      -0.29264362      -0.49395933       0.05381613      -0.16574192       0.16734219
Li      12.50264796       5.26978633       5.75735429        1      -0.38997806      -0.44128098       0.67956353       0.17610590      -0.15941046       0.01036503
Li       9.24830209       5.41357371       5.87841626        2       0.11027961      -0.32348608       0.01603364       0.24531618       0.20294541      -0.26726508
Li      12.61633732       7.31998713       3.23820550        3       0.26667569      -0.09684846       0.24595229      -0.07315551       0.06406005       0.16463535
Li      10.77221510       4.29549996       3.07904041        4      -0.52904442       0.22586219       0.43879732       0.39629516       0.22725898       0.17719062
Li      10.55436271       8.24437418       5.90969869        5      -0.67539845      -0.21254781      -0.32763221      -0.14495791      -0.23939256      -0.57785964
P        7.28957281       4.21618817       3.00769408        6      -0.43091696       0.42285170      -1.06555640      -0.96860635       0.11177287      -0.02241087
S        7.16299403       6.12630136       2.26225200        7       0.03212941      -0.22170982       0.02083598       0.45372593       0.23507887       0.46076375
S        8.86252312       3.25450455       2.20562894        8      -0.53059626       1.15124691       0.78877248       0.67320466      -0.43080011      -0.02224711
S        5.62229317       3.22449293       2.26761756        9      -0.62014154      -1.13710754      -0.20106248      -0.13713875       0.06860115       0.60491329
S        7.37713142       4.24012055       5.07196392       10       2.00423207       0.65914693       0.70338368      -0.33167756      -0.21594772      -0.33931527
S       10.95526831       6.24960940       4.45645194       11      -0.20890428       0.82510841      -0.01409352      -0.64418542       0.33547729      -0.10433429
Cl       0.08989002      -0.04642417      -0.05338948       12       0.70860394      -0.55859183      -0.79103493       0.30125755      -0.03390177      -0.25177801
13
Lattice="7.26870274 0.0 0.0 3.634351370000001 6.294881225397555 0.0 3.634351370000001 2.0982937417991856 5.934870934989993" Properties=species:S:1:pos:R:3:spacegroup_kinds:I:1:momenta:R:3:forces:R:3 spacegroup="P 1" unit_cell=conventional occupancy="_JSON {\"0\": {\"Li\": 1}, \"1\": {\"Li\": 1}, \"2\": {\"Li\": 1}, \"3\": {\"Li\": 1}, \"4\": {\"Li\": 1}, \"5\": {\"Li\": 1}, \"6\": {\"P\": 1}, \"7\": {\"S\": 1}, \"8\": {\"S\": 1}, \"9\": {\"S\": 1}, \"10\": {\"S\": 1}, \"11\": {\"S\": 1}, \"12\": {\"Cl\": 1}}" energy=-53.26294708251953 free_energy=-53.26294708251953 stress="-0.005618986673653126 -0.002097546588629484 0.0005492097116075456 -0.002097546588629484 -0.002761915558949113 -1.026937025017105e-05 0.0005492097116075456 -1.026937025017105e-05 0.0020461620297282934" pbc="T T T"
Li       9.27076635       7.24238515       3.11979223        0       0.96432617      -0.26174527      -0.45303995      -0.14002839      -0.13630760      -0.02561625
Li      12.42680888       5.19584421       5.84494331        1      -0.50732563      -0.29948148       0.27945724       0.22922885      -0.19725913      -0.25522619
Li       9.31117382       5.40849071       5.84813609        2       0.43397935       0.12190801      -0.57330517       0.00259722       0.06982413      -0.07587801
Li      12.65468308       7.32733890       3.25182951        3       0.16185890       0.24681079      -0.09239813      -0.09697768       0.12908861       0.22008255
Li      10.71501836       4.34614409       3.13366609        4       0.05854798       0.49562174       0.30241466       0.52237105       0.11256041       0.11944287
Li      10.36030060       8.22016028       5.80242640        5      -1.27125488      -0.10553392      -0.72767862      -0.15206484       0.02031983      -0.14216450
P        7.23968073       4.21756020       2.96901053        6      -1.71208723       0.03141992      -0.31119495      -0.17776842       0.23144087       1.12319160
S        7.15554953       6.12297184       2.26357100        7      -0.13492262      -0.08691050      -0.02673102       0.38921881       0.39185101      -0.09048930
S        8.87609361       3.29729073       2.23629099        8       1.05326212       0.38845253       0.95684089       0.51893955      -0.59294569      -0.12534691
S        5.61767179       3.20247054       2.28984887        9       0.34641258      -0.15794461       0.98186425      -0.56787121      -0.10393940       0.22756828
S        7.41688399       4.24167447       5.08009873       10      -0.42093490      -0.61139077      -0.60812302      -0.65426552      -0.26977757      -0.80812109
S       10.95523661       6.27280166       4.45206087       11       0.07842928       0.85332409       0.35515138      -0.30404341       0.23490843       0.01648784
Cl       0.11843593      -0.06367287      -0.05982517       12       0.94970892      -0.61453052      -0.08325757       0.43066382       0.11023600      -0.18393086
13
Lattice="7.26870274 0.0 0.0 3.634351370000001 6.294881225397555 0.0 3.634351370000001 2.0982937417991856 5.934870934989993" Properties=species:S:1:pos:R:3:spacegroup_kinds:I:1:momenta:R:3:forces:R:3 spacegroup="P 1" unit_cell=conventional occupancy="_JSON {\"0\": {\"Li\": 1}, \"1\": {\"Li\": 1}, \"2\": {\"Li\": 1}, \"3\": {\"Li\": 1}, \"4\": {\"Li\": 1}, \"5\": {\"Li\": 1}, \"6\": {\"P\": 1}, \"7\": {\"S\": 1}, \"8\": {\"S\": 1}, \"9\": {\"S\": 1}, \"10\": {\"S\": 1}, \"11\": {\"S\": 1}, \"12\": {\"Cl\": 1}}" energy=-53.307701110839844 free_energy=-53.307701110839844 stress="-0.003150590229779482 -0.006387948524206877 -0.0026063143741339445 -0.006387948524206877 -0.0032091722823679447 -0.0006259250221773982 -0.0026063143741339445 -0.0006259250221773982 -0.002346416935324669" pbc="T T T"
Li       9.39975585       7.19114182       3.03537468        0       0.58333179      -0.21572556      -0.54204544      -0.35382116      -0.09918589      -0.30392396
Li      12.34858485       5.10464204       5.88824488        1      -0.08032757      -0.68449011       0.03496648       0.24465759      -0.18533985      -0.21700074
Li       9.37191842       5.42904125       5.77283243        2       0.28492631       0.07208224      -0.16359595      -0.49454674      -0.20343049       0.30403471
Li      12.68836541       7.39740825       3.28677705        3       0.22243977       0.54590736       0.39021061      -0.03122721       0.01966834       0.27565691
Li      10.74659501       4.39757928       3.16558215        4       0.28495042       0.08773516       0.20888018       0.38954762      -0.09088599      -0.05892533
Li      10.14943850       8.21571380       5.65275022        5      -1.25211446       0.06279254      -0.62493681      -0.23590824       0.18629499       0.25846803
P        7.17691625       4.22416264       2.98282807        6      -0.32554037       0.18369351       1.16456848       1.57161975       0.41087693       0.42242754
S        7.15192923       6.13262894       2.26933379        7      -0.40625525       0.72648719      -0.17303127       0.29002476       0.21864198      -0.28106338
S        8.91322437       3.29268984       2.26532876        8       0.62565926      -0.91060465       0.70696553      -0.28615484      -0.01719610       0.06125670
S        5.62754042       3.19095931       2.32150440        9      -0.50566377      -0.72191796       0.36636723      -1.30070424      -0.53891939      -0.36536744
S        7.38393412       4.21291056       5.03023711       10      -1.28485309      -0.58115455      -1.61374114      -0.49268484      -0.12049296       0.07892615
S       10.96101492       6.30779213       4.46379442       11       0.08228998       1.07945154       0.08786115       0.12361044       0.19511029      -0.03210361
Cl       0.16505124      -0.06830482      -0.05872552       12       1.77115701       0.35574331       0.15753096       0.57558715       0.22485812      -0.14238554
13
Lattice="7.26870274 0.0 0.0 3.634351370000001 6.294881225397555 0.0 3.634351370000001 2.0982937417991856 5.934870934989993" Properties=species:S:1:pos:R:3:spacegroup_kinds:I:1:momenta:R:3:forces:R:3 spacegroup="P 1" unit_cell=conventional occupancy="_JSON {\"0\": {\"Li\": 1}, \"1\": {\"Li\": 1}, \"2\": {\"Li\": 1}, \"3\": {\"Li\": 1}, \"4\": {\"Li\": 1}, \"5\": {\"Li\": 1}, \"6\": {\"P\": 1}, \"7\": {\"S\": 1}, \"8\": {\"S\": 1}, \"9\": {\"S\": 1}, \"10\": {\"S\": 1}, \"11\": {\"S\": 1}, \"12\": {\"Cl\": 1}}" energy=-53.51225662231445 free_energy=-53.51225662231445 stress="0.005982278846204281 -0.001188088906928897 0.0006072984542697668 -0.001188088906928897 0.00516888964921236 -0.0001501669903518632 0.0006072984542697668 -0.0001501669903518632 -0.0044486671686172485" pbc="T T T"
Li       9.45862726       7.13521765       2.90711602        0       0.10905725      -0.53054875      -0.64418317      -0.25328362      -0.08665868      -0.30234316
Li      12.36830467       4.97582130       5.84465074        1       0.08826435      -0.73899915      -0.43141064      -0.01924087       0.03305530      -0.04563161
Li       9.37385475       5.39653037       5.76899309        2      -0.21448018      -0.41466632       0.03145058      -0.39040273      -0.15446214       0.32976466
Li      12.73646367       7.45392794       3.38962516        3       0.36494261      -0.08270061       0.64154041       0.07735864      -0.13763830       0.31585231
Li      10.82911039       4.39374276       3.16446184        4       0.49115525       0.06975493      -0.01542628       0.21415329      -0.05190282      -0.05318709
Li       9.94827823       8.22433075       5.56416762        5      -1.09956819       0.17918007      -0.48112259      -0.18974710       0.14734542       0.28556383
P        7.19885172       4.24934498       3.01734839        6       0.74889754       0.88697388       0.45305065       0.20817262      -0.26897424      -1.38125062
S        7.15381598       6.16063363       2.23140062        7       0.20016362       0.48777678      -1.07145766       0.22410047      -0.34607008       0.04559748
S        8.90702932       3.24653911       2.31246952        8      -0.36251137      -1.07915525       1.51781304      -0.25196058       0.37157503      -0.19666374
S        5.56052919       3.14753022       2.34958874        9      -2.40377325      -1.19602826       1.03325152       0.09844995       0.40145355      -0.01674266
S        7.34404706       4.18633612       5.00179290       10      -0.81361705      -0.99088944      -0.11484020      -0.23390406       0.06497457       1.11053324
S       10.96501548       6.37126543       4.47622663       11       0.32267638       1.96756101       0.30889095       0.10878988      -0.25214541       0.03781858
Cl       0.24075529      -0.03804953      -0.07626702       12       2.56879304       1.44174113      -1.22755660       0.40751421       0.27944797      -0.12931120
13
Lattice="7.26870274 0.0 0.0 3.634351370000001 6.294881225397555 0.0 3.634351370000001 2.0982937417991856 5.934870934989993" Properties=species:S:1:pos:R:3:spacegroup_kinds:I:1:momenta:R:3:forces:R:3 spacegroup="P 1" unit_cell=conventional occupancy="_JSON {\"0\": {\"Li\": 1}, \"1\": {\"Li\": 1}, \"2\": {\"Li\": 1}, \"3\": {\"Li\": 1}, \"4\": {\"Li\": 1}, \"5\": {\"Li\": 1}, \"6\": {\"P\": 1}, \"7\": {\"S\": 1}, \"8\": {\"S\": 1}, \"9\": {\"S\": 1}, \"10\": {\"S\": 1}, \"11\": {\"S\": 1}, \"12\": {\"Cl\": 1}}" energy=-53.49222946166992 free_energy=-53.49222946166992 stress="0.0001259760174434632 0.005223050247877836 0.004860174376517534 0.005223050247877836 0.009371542371809483 -0.00183481362182647 0.004860174376517534 -0.00183481362182647 0.0020701612811535597" pbc="T T T"
Li       9.49360918       6.98276098       2.75186304        0       0.26420786      -0.97035340      -1.09946046      -0.09448422       0.15312743      -0.18893839
Li      12.37019209       4.85286137       5.79538663        1      -0.16146555      -0.67785503       0.06799875      -0.22283587       0.19097283       0.06131431
Li       9.28514967       5.27798318       5.81216472        2      -0.39210617      -0.87611308       0.39920299       0.11874156       0.19645755       0.08961886
Li      12.80465820       7.42790393       3.48666495        3       0.67663794      -0.16563334       0.66409038       0.05919625      -0.03394757       0.27744228
Li      10.94906746       4.38570642       3.16945930        4       0.85227018      -0.10847537      -0.08624676      -0.11327449       0.05781031       0.04776637
Li       9.74480559       8.26549077       5.49208452        5      -0.81855586       0.37702587      -0.25832958       0.73618615      -0.09753805      -0.01333676
P        7.23086238       4.26740310       2.99245975        6       0.32285943      -0.06853158      -1.22255076      -0.98899609      -0.63473070      -0.49796659
S        7.16817040       6.16358344       2.20171359        7       0.22649594      -0.16897041      -0.98011573       0.13653681      -0.30865204       0.06400684
S        8.87095472       3.23633824       2.37288756        8      -0.98101906       0.20034414       1.31140259       0.52329546       0.06462294      -0.61244559
S        5.49536276       3.12438966       2.38086301        9      -0.87475184      -0.46919140       0.50424444       0.94259131       0.54892075       0.04496908
S        7.31392317       4.17812041       5.02374265       10      -1.01274836      -0.37065708       0.94598906      -0.33035913       0.10832432       0.41989702
S       10.95826896       6.41471712       4.47846660       11      -0.64674824       1.00654586       0.08557080      -0.17907722      -0.65299654       0.23979650
Cl       0.33801634       0.01714960      -0.10709085       12       2.54492374       2.29186487      -0.33179568      -0.58752060       0.40762886       0.06787606
13