13
Lattice="7.26870274 0.0 0.0 3.634351370000001 6.294881225397555 0.0 3.634351370000001 2.0982937417991856 5.934870934989993" Properties=species:S:1:pos:R:3:spacegroup_kinds:I:1:forces:R:3 spacegroup="P 1" unit_cell=conventional occupancy="_JSON {\"0\": {\"Li\": 1}, \"1\": {\"Li\": 1}, \"2\": {\"Li\": 1}, \"3\": {\"Li\": 1}, \"4\": {\"Li\": 1}, \"5\": {\"Li\": 1}, \"6\": {\"P\": 1}, \"7\": {\"S\": 1}, \"8\": {\"S\": 1}, \"9\": {\"S\": 1}, \"10\": {\"S\": 1}, \"11\": {\"S\": 1}, \"12\": {\"Cl\": 1}}" energy=-53.3634147644043 free_energy=-53.3634147644043 stress="-0.0007941995281726122 -2.2924231757315283e-07 -1.6749234532653645e-07 -2.2924231757315283e-07 -0.0007939469069242477 -1.1506352137757858e-07 -1.6749234532653645e-07 -1.1506352137757858e-07 -0.0007939208298921585" pbc="T T T"
Li       9.25387995       7.24703237       3.10460814        0       0.00422566      -0.00243452       0.00344779
Li      12.55222827       5.34273008       5.79769826        1      -0.00421060       0.00243269      -0.00344097
Li       9.25387995       5.34273008       5.79769826        2       0.00422465       0.00243895      -0.00344686
Li      12.55222827       7.24703237       3.10460814        3      -0.00421226      -0.00243118       0.00344098
Li      10.90305411       4.39057894       3.10460814        4       0.00000250       0.00487579       0.00344830
Li      10.90305411       8.19918351       5.79769826        5       0.00000226      -0.00486325      -0.00344108
P        7.26870274       4.19658748       2.96743547        6       0.00008517       0.00004653       0.00003599
S        7.26870637       6.13578650       2.28182731        7      -0.00001839      -0.01090859       0.00384724
S        8.94810016       3.22699113       2.28182731        8      -0.00945792       0.00544035       0.00384700
S        5.58931258       3.22699113       2.28182731        9       0.00937788       0.00541264       0.00383012
S        7.26870637       4.19658958       5.02426588       10      -0.00001901      -0.00000974      -0.01156950
S       10.90305411       6.29488123       4.45115320       11      -0.00000146      -0.00000035      -0.00000008
Cl       0.00000000       0.00000000       0.00000000       12       0.00000151       0.00000076       0.00000108
