4
Lattice="3.128588 0.0 0.0 -1.5642939988088433 2.709436998432005 0.0 0.0 0.0 5.016955" Properties=species:S:1:pos:R:3:spacegroup_kinds:I:1:forces:R:3 spacegroup="P 1" unit_cell=conventional occupancy="_JSON {\"0\": {\"Al\": 1}, \"1\": {\"Al\": 1}, \"2\": {\"N\": 1}, \"3\": {\"N\": 1}}" energy=-29.673717498779297 free_energy=-29.673717498779297 stress="-0.002225334756076336 -1.331909402324527e-06 -7.920776923242556e-09 -1.331909402324527e-06 -0.0022272253409028053 -4.836791944740071e-08 -7.920776923242556e-09 -4.836791944740071e-08 -0.005453562363982201" pbc="T T T"
Al       1.56429556       0.90314476       2.50490041        0      -0.00003421       0.00002008       0.00553184
Al      -0.00000156       1.80629224       5.01337791        1       0.00003464      -0.00001880       0.00552409
N        1.56429556       0.90314476       4.41849749        2      -0.00003687       0.00001941      -0.00553031
N       -0.00000156       1.80629224       1.91001999        3       0.00003656      -0.00002048      -0.00552606
