13
Lattice="7.26870274 0.0 0.0 3.634351370000001 6.294881225397555 0.0 3.634351370000001 2.0982937417991856 5.934870934989993" Properties=species:S:1:pos:R:3:spacegroup_kinds:I:1:momenta:R:3:forces:R:3 spacegroup="P 1" unit_cell=conventional occupancy="_JSON {\"0\": {\"Li\": 1}, \"1\": {\"Li\": 1}, \"2\": {\"Li\": 1}, \"3\": {\"Li\": 1}, \"4\": {\"Li\": 1}, \"5\": {\"Li\": 1}, \"6\": {\"P\": 1}, \"7\": {\"S\": 1}, \"8\": {\"S\": 1}, \"9\": {\"S\": 1}, \"10\": {\"S\": 1}, \"11\": {\"S\": 1}, \"12\": {\"Cl\": 1}}" energy=-53.71091079711914 free_energy=-53.71091079711914 stress="0.008358504623174667 0.0022672126069664955 -0.0007031506393104792 0.0022672126069664955 0.002784064272418618 0.001104495720937848 -0.0007031506393104792 0.001104495720937848 0.0023727898951619864" pbc="T T T"
Li       8.76308209       7.71976087       3.91674494        0      -0.27161878       0.38374251      -0.60984457       0.18654303      -0.16322123       0.15929502
Li      12.77590834       5.47599084       5.73114482        1       0.89389474       0.48850819      -0.47610733       0.17925687      -0.23437375       0.28745037
Li       9.70892736       4.34934153       5.24712873        2       0.58377991      -0.81253441      -0.00990163      -0.07799049      -0.12600343       0.10673108
Li      12.64075447       7.42303446       3.53075621        3       0.45056220       0.51165205       0.03968930       0.19990332       0.14635800      -0.13363671
Li      10.97463176       5.12608375       2.25246951        4      -0.03614375      -0.74288867      -0.11780024      -0.07512134      -0.02577524       0.15482156
Li      11.49052060       7.98382427       6.07805317        5      -0.58914401      -0.40212581      -0.66022560      -0.08417062       0.04851897      -0.18588760
P        7.24709769       4.20819146       2.96904299        6       1.20265651      -0.86089465       0.65304117       0.09451929      -0.13645174       0.04574816
S        7.36652017       6.17784924       2.44826491        7      -0.69816080       0.28608988      -0.13036482      -0.43891287       0.59923422      -0.11818124
S        9.05242971       3.42061790       2.31546392        8       1.15699005       0.74388124      -0.51552781      -0.03483108      -0.45923254      -0.09180626
S        5.55812363       3.27617108       2.25317989        9      -1.17120218       0.54265131       1.69995904       0.23969831       0.07859302      -0.12697481
S        7.26052173       4.07681342       5.01385727       10       0.08362997      -1.86724119      -1.16066455       0.14190795      -0.35995862       0.42597681
S       10.96938684       6.12206035       4.58847419       11      -1.03337490       1.05662292       0.48572982      -0.19296595       0.84284317      -0.53627259
Cl      -0.37272738      -0.06088393      -0.28136547       12      -0.57186895       0.67253666       0.80201721      -0.13783641      -0.21053080       0.01273623
