13
Lattice="7.26870274 0.0 0.0 3.634351370000001 6.294881225397555 0.0 3.634351370000001 2.0982937417991856 5.934870934989993" Properties=species:S:1:pos:R:3:spacegroup_kinds:I:1:momenta:R:3:forces:R:3 spacegroup="P 1" unit_cell=conventional occupancy="_JSON {\"0\": {\"Li\": 1}, \"1\": {\"Li\": 1}, \"2\": {\"Li\": 1}, \"3\": {\"Li\": 1}, \"4\": {\"Li\": 1}, \"5\": {\"Li\": 1}, \"6\": {\"P\": 1}, \"7\": {\"S\": 1}, \"8\": {\"S\": 1}, \"9\": {\"S\": 1}, \"10\": {\"S\": 1}, \"11\": {\"S\": 1}, \"12\": {\"Cl\": 1}}" energy=-53.3634147644043 free_energy=-53.3634147644043 stress="-0.0007942249649204314 -2.2835145330191153e-07 -1.570561778407864e-07 -2.2835145330191153e-07 -0.0007939478382468224 -1.0567954689122416e-07 -1.570561778407864e-07 -1.0567954689122416e-07 -0.0007938995258882642" pbc="T T T"
Li       9.25387995       7.24703237       3.10460814        0       0.00000000       0.00000000       0.00000000       0.00422589      -0.00243454       0.00344819
Li      12.55222827       5.34273008       5.79769826        1       0.00000000       0.00000000       0.00000000      -0.00421097       0.00243329      -0.00344126
Li       9.25387995       5.34273008       5.79769826        2       0.00000000       0.00000000       0.00000000       0.00422552       0.00243853      -0.00344725
Li      12.55222827       7.24703237       3.10460814        3       0.00000000       0.00000000       0.00000000      -0.00421191      -0.00243090       0.00344079
Li      10.90305411       4.39057894       3.10460814        4       0.00000000       0.00000000       0.00000000       0.00000234       0.00487687       0.00344874
Li      10.90305411       8.19918351       5.79769826        5       0.00000000       0.00000000       0.00000000       0.00000224      -0.00486332      -0.00344132
P        7.26870274       4.19658748       2.96743547        6       0.00000000       0.00000000       0.00000000       0.00008571       0.00004636       0.00003632
S        7.26870637       6.13578650       2.28182731        7       0.00000000       0.00000000       0.00000000      -0.00001832      -0.01090980       0.00384762
S        8.94810016       3.22699113       2.28182731        8       0.00000000       0.00000000       0.00000000      -0.00945930       0.00544037       0.00384776
S        5.58931258       3.22699113       2.28182731        9       0.00000000       0.00000000       0.00000000       0.00937808       0.00541277       0.00382989
S        7.26870637       4.19658958       5.02426588       10       0.00000000       0.00000000       0.00000000      -0.00001851      -0.00000975      -0.01157008
S       10.90305411       6.29488123       4.45115320       11       0.00000000       0.00000000       0.00000000      -0.00000138      -0.00000131      -0.00000035
Cl       0.00000000       0.00000000       0.00000000       12       0.00000000       0.00000000       0.00000000       0.00000066       0.00000151       0.00000095
13
Lattice="7.26870274 0.0 0.0 3.634351370000001 6.294881225397555 0.0 3.634351370000001 2.0982937417991856 5.934870934989993" Properties=species:S:1:pos:R:3:spacegroup_kinds:I:1:momenta:R:3:forces:R:3 spacegroup="P 1" unit_cell=conventional occupancy="_JSON {\"0\": {\"Li\": 1}, \"1\": {\"Li\": 1}, \"2\": {\"Li\": 1}, \"3\": {\"Li\": 1}, \"4\": {\"Li\": 1}, \"5\": {\"Li\": 1}, \"6\": {\"P\": 1}, \"7\": {\"S\": 1}, \"8\": {\"S\": 1}, \"9\": {\"S\": 1}, \"10\": {\"S\": 1}, \"11\": {\"S\": 1}, \"12\": {\"Cl\": 1}}" energy=-53.282588958740234 free_energy=-53.282588958740234 stress="0.0023750814143568277 0.0009328695014119148 0.0006065855268388987 0.0009328695014119148 -0.0027379437815397978 0.005774916615337133 0.0006065855268388987 0.005774916615337133 -0.004196438938379288" pbc="T T T"
Li       9.16722426       7.31286744       3.27596321        0      -0.27290556      -0.16516127       0.37652506      -0.17828771       0.05987279       0.02968670
Li      12.67751469       5.64011401       5.75869044        1       0.61878490       0.56024562       0.37739736       0.11183359       0.07979086       0.06687400
Li       9.28771558       5.20705250       5.80067249        2       0.14308104      -0.07699408       0.37236091       0.06643530      -0.08103172      -0.15510798
Li      12.45873658       7.33079424       3.16685876        3      -0.03750065      -0.29066705       0.25281573       0.13045272      -0.17962593      -0.04165754
Li      11.04063323       4.45502181       3.01407916        4      -0.11863953       0.19298119       0.00871115      -0.19560447       0.05447585      -0.05277156
Li      10.95745914       8.20178858       5.96502686        5       0.01997346      -0.26805885       0.15846205      -0.00747016       0.04281101      -0.53113282
P        7.32230642       4.20066378       2.92791454        6       0.15859875      -0.42834256      -0.13655400      -0.39610341      -0.84779596       0.39733535
S        7.23227792       6.12616101       2.33800058        7       0.49337083       0.39630046       0.16957304       0.04455647       0.61121088      -0.08723383
S        8.98253953       3.17648890       2.26501500        8       0.67623477       0.24529153       0.06977886       0.11072718       0.55272239      -0.08760266
S        5.65094772       3.17143197       2.23223942        9       0.06530684       0.19048993      -0.24406391       0.13966461       0.22964782       0.10626832
S        7.21460894       4.21673405       4.98275313       10      -0.78869028       0.04887834      -1.58637356       0.16865623      -0.22731504       0.13014138
S       10.84630305       6.32828049       4.45892213       11      -0.50039024       0.21975069       0.36490696       0.18764566      -0.06789637       0.27755752
Cl      -0.03413119      -0.02058310       0.01999110       12      -0.45722431      -0.62471393      -0.18353964      -0.18250610      -0.22686657      -0.05235685
13
Lattice="7.26870274 0.0 0.0 3.634351370000001 6.294881225397555 0.0 3.634351370000001 2.0982937417991856 5.934870934989993" Properties=species:S:1:pos:R:3:spacegroup_kinds:I:1:momenta:R:3:forces:R:3 spacegroup="P 1" unit_cell=conventional occupancy="_JSON {\"0\": {\"Li\": 1}, \"1\": {\"Li\": 1}, \"2\": {\"Li\": 1}, \"3\": {\"Li\": 1}, \"4\": {\"Li\": 1}, \"5\": {\"Li\": 1}, \"6\": {\"P\": 1}, \"7\": {\"S\": 1}, \"8\": {\"S\": 1}, \"9\": {\"S\": 1}, \"10\": {\"S\": 1}, \"11\": {\"S\": 1}, \"12\": {\"Cl\": 1}}" energy=-53.39204025268555 free_energy=-53.39204025268555 stress="0.014378132298588753 -0.003641914576292038 0.0004931940347887576 -0.003641914576292038 -0.0035649605561047792 0.00436021713539958 0.0004931940347887576 0.00436021713539958 0.005209721624851227" pbc="T T T"
Li       8.92523810       7.48743940       3.66071616        0      -0.69765490       0.53287287       0.34848538       0.11478141      -0.00079862       0.01634853
Li      13.20816907       6.41419027       5.90271738        1       0.44334392       0.69186766      -0.06617628      -0.69861782      -1.26012588       0.23715624
Li       9.29177961       5.06031481       5.60062170        2       0.73217578      -0.05864217      -0.52211392       0.19585511      -0.09333065       0.11741216
Li      12.75954397       7.33797288       3.44277371        3       0.27828717       0.42956948       0.39795978      -0.03311899       0.15077570      -0.19378851
Li      11.05928758       4.63416957       3.07231724        4      -0.06247459       0.60886157      -0.03134816      -0.10828730      -0.13013741      -0.22963910
Li      10.97234624       8.35618506       5.81288390        5       0.41118741       0.04869268      -0.37569836       0.07895393      -0.63570893       0.20495740
P        7.26863813       4.14406596       2.89281489        6       0.00947403       0.50915998      -0.42924368       0.46862978      -0.25263768       0.17915124
S        7.34184481       6.10973261       2.27817093        7       0.20977633      -0.93678631       0.31659853      -0.06605794       0.10240866       0.28819263
S        9.06207493       3.20312522       2.29912658        8      -0.17146014      -1.16671504       1.43985348      -0.58089668       0.45069098       0.11250008
S        5.58045313       3.22173215       2.11113304        9      -0.25806112       1.12538631      -0.23156816       0.18787222      -0.00307223       0.36356586
S        7.11428241       4.10696975       4.98462566       10      -0.33588084      -0.54802795      -0.15724706      -0.08745654       0.93560207      -0.65075070
S       10.94918109       6.38118461       4.59329981       11       1.36206973       0.66825482       0.29774474       0.08108325       0.15476875      -0.00954661
Cl      -0.21979178      -0.19751317      -0.03986596       12      -1.92078280      -1.90449389      -0.98724634       0.44725966       0.58156538      -0.43555939
13
Lattice="7.26870274 0.0 0.0 3.634351370000001 6.294881225397555 0.0 3.634351370000001 2.0982937417991856 5.934870934989993" Properties=species:S:1:pos:R:3:spacegroup_kinds:I:1:momenta:R:3:forces:R:3 spacegroup="P 1" unit_cell=conventional occupancy="_JSON {\"0\": {\"Li\": 1}, \"1\": {\"Li\": 1}, \"2\": {\"Li\": 1}, \"3\": {\"Li\": 1}, \"4\": {\"Li\": 1}, \"5\": {\"Li\": 1}, \"6\": {\"P\": 1}, \"7\": {\"S\": 1}, \"8\": {\"S\": 1}, \"9\": {\"S\": 1}, \"10\": {\"S\": 1}, \"11\": {\"S\": 1}, \"12\": {\"Cl\": 1}}" energy=-53.702308654785156 free_energy=-53.702308654785156 stress="0.006577446591109037 0.0008906092843972147 6.874163227621466e-05 0.0008906092843972147 0.007486418355256319 -0.001515402807854116 6.874163227621466e-05 -0.001515402807854116 0.0019339339341968298" pbc="T T T"
Li       8.81627949       7.58292597       3.92776354        0       0.85530842      -0.65841401       0.51048181       0.26838535      -0.12693653       0.10142513
Li      12.67901373       5.50469657       5.98773890        1      -1.21184268      -1.28154185      -0.24665752      -0.09067165       0.18867229      -0.09897844
Li       9.72238859       4.68003185       5.75890985        2       0.27266593      -0.55381560       0.35053982      -0.02309564       0.17400083      -0.30180198
Li      13.09496312       7.42192039       3.73425760        3       0.08272255       0.06065785       0.55545172      -0.24719590      -0.07421194      -0.14105615
Li      10.80114523       4.92081829       2.53597157        4      -0.38017521       0.61046498      -1.06218979       0.14122340       0.15499243       0.10993043
Li      11.35863240       8.39929769       5.84169633        5       0.77275689       0.13906490      -0.01051944       0.06637353      -0.57974172      -0.15569349
P        7.18292959       4.20940265       2.93278484        6      -0.60447161       1.37149104       0.29336520       0.74626338       0.28915614       0.10846752
S        7.39910589       6.17569637       2.27918095        7      -0.20005080       0.31395673       0.40552317      -0.23392841      -0.11312643       0.22934589
S        8.95988584       3.25420946       2.48050012        8      -0.52531980       0.16955086       0.81944978       0.12555954      -0.11413492      -0.33014494
S        5.57590760       3.21221272       2.17340231        9       0.65518445      -0.62921827       0.17169610      -0.38003230       0.02141292      -0.02396084
S        7.13767267       4.19477221       4.98222054       10       0.45645385       0.95926557       1.53413842       0.13813138       0.23700170       0.35014352
S       11.11989877       6.40607903       4.48188486       11       0.17791458       0.24545125      -0.70051061      -0.57797688      -0.19804436       0.11774869
Cl      -0.32597624      -0.30030355      -0.25125247       12      -0.35114658      -0.74691344      -2.62076871       0.06696429       0.14095968       0.03457464
13
Lattice="7.26870274 0.0 0.0 3.634351370000001 6.294881225397555 0.0 3.634351370000001 2.0982937417991856 5.934870934989993" Properties=species:S:1:pos:R:3:spacegroup_kinds:I:1:momenta:R:3:forces:R:3 spacegroup="P 1" unit_cell=conventional occupancy="_JSON {\"0\": {\"Li\": 1}, \"1\": {\"Li\": 1}, \"2\": {\"Li\": 1}, \"3\": {\"Li\": 1}, \"4\": {\"Li\": 1}, \"5\": {\"Li\": 1}, \"6\": {\"P\": 1}, \"7\": {\"S\": 1}, \"8\": {\"S\": 1}, \"9\": {\"S\": 1}, \"10\": {\"S\": 1}, \"11\": {\"S\": 1}, \"12\": {\"Cl\": 1}}" energy=-53.538814544677734 free_energy=-53.538814544677734 stress="0.003468768671154976 0.003813473042100668 0.004649633076041937 0.003813473042100668 0.016312826424837112 -0.001675821258686483 0.004649633076041937 -0.001675821258686483 0.017959782853722572" pbc="T T T"
Li       9.01121337       7.48124994       4.23597362        0      -0.24652203       0.21652334       0.08359251      -0.21315207       0.04119617      -0.24196272
Li      12.51670967       5.10488086       5.98148036        1       0.59247673      -0.00577835       0.53555544      -0.24195780       0.34151798      -0.18712351
Li       9.81475307       4.55111137       5.57697299        2      -0.51688702      -0.07493039      -0.52619237      -0.24974985       0.06690043      -0.06352570
Li      12.93171075       7.38894917       3.49198173        3      -0.63567813      -0.39079598      -0.56683762      -0.28499389       0.01319015       0.29294726
Li      10.74251305       5.21886371       2.15318202        4       0.61655894       0.31608442       0.11263513       0.06797969      -0.07367154       0.20203507
Li      11.72286256       8.15928029       5.83913234        5       0.24457542      -0.35138625       0.64910014      -0.20185639      -0.05044220       0.14357932
P        7.19588002       4.26229851       3.05781859        6      -0.32559402      -0.37279454       0.17537322      -0.21111824       0.00202041      -0.70541102
S        7.33226842       6.27041047       2.39636953        7      -0.57170045       0.18712800       0.88285425       0.35493076      -0.90388870      -0.13214873
S        8.90181296       3.27970914       2.42705980        8       0.05919662       0.23400246      -1.22857510       0.39742085       0.27907559       0.07119951
S        5.65655993       3.20763228       2.08547205        9       0.37035021       0.91913980      -0.56683603       0.11252833       0.53928304       0.78834891
S        7.21631928       4.23782209       5.14961715       10       0.92518932      -0.30260987       0.20212323       0.34695518      -0.43594196      -0.48043823
S       11.00889426       6.29226555       4.47382969       11      -0.61637448      -1.80717668       0.24205540       0.25911403      -0.16032732      -0.01902847
Cl      -0.32048718      -0.26848774      -0.38299021       12       0.10440892       1.43259403       0.00515180      -0.13610071       0.34108788       0.33152834
13
Lattice="7.26870274 0.0 0.0 3.634351370000001 6.294881225397555 0.0 3.634351370000001 2.0982937417991856 5.934870934989993" Properties=species:S:1:pos:R:3:spacegroup_kinds:I:1:momenta:R:3:forces:R:3 spacegroup="P 1" unit_cell=conventional occupancy="_JSON {\"0\": {\"Li\": 1}, \"1\": {\"Li\": 1}, \"2\": {\"Li\": 1}, \"3\": {\"Li\": 1}, \"4\": {\"Li\": 1}, \"5\": {\"Li\": 1}, \"6\": {\"P\": 1}, \"7\": {\"S\": 1}, \"8\": {\"S\": 1}, \"9\": {\"S\": 1}, \"10\": {\"S\": 1}, \"11\": {\"S\": 1}, \"12\": {\"Cl\": 1}}" energy=-53.71091079711914 free_energy=-53.71091079711914 stress="0.008358504623174667 0.0022672126069664955 -0.0007031506393104792 0.0022672126069664955 0.002784064272418618 0.001104495720937848 -0.0007031506393104792 0.001104495720937848 0.0023727898951619864" pbc="T T T"
Li       8.76308209       7.71976087       3.91674494        0      -0.27161878       0.38374251      -0.60984457       0.18654303      -0.16322123       0.15929502
Li      12.77590834       5.47599084       5.73114482        1       0.89389474       0.48850819      -0.47610733       0.17925687      -0.23437375       0.28745037
Li       9.70892736       4.34934153       5.24712873        2       0.58377991      -0.81253441      -0.00990163      -0.07799049      -0.12600343       0.10673108
Li      12.64075447       7.42303446       3.53075621        3       0.45056220       0.51165205       0.03968930       0.19990332       0.14635800      -0.13363671
Li      10.97463176       5.12608375       2.25246951        4      -0.03614375      -0.74288867      -0.11780024      -0.07512134      -0.02577524       0.15482156
Li      11.49052060       7.98382427       6.07805317        5      -0.58914401      -0.40212581      -0.66022560      -0.08417062       0.04851897      -0.18588760
P        7.24709769       4.20819146       2.96904299        6       1.20265651      -0.86089465       0.65304117       0.09451929      -0.13645174       0.04574816
S        7.36652017       6.17784924       2.44826491        7      -0.69816080       0.28608988      -0.13036482      -0.43891287       0.59923422      -0.11818124
S        9.05242971       3.42061790       2.31546392        8       1.15699005       0.74388124      -0.51552781      -0.03483108      -0.45923254      -0.09180626
S        5.55812363       3.27617108       2.25317989        9      -1.17120218       0.54265131       1.69995904       0.23969831       0.07859302      -0.12697481
S        7.26052173       4.07681342       5.01385727       10       0.08362997      -1.86724119      -1.16066455       0.14190795      -0.35995862       0.42597681
S       10.96938684       6.12206035       4.58847419       11      -1.03337490       1.05662292       0.48572982      -0.19296595       0.84284317      -0.53627259
Cl      -0.37272738      -0.06088393      -0.28136547       12      -0.57186895       0.67253666       0.80201721      -0.13783641      -0.21053080       0.01273623
