13
Lattice="7.26870274 0.0 0.0 3.634351370000001 6.294881225397555 0.0 3.634351370000001 2.0982937417991856 5.934870934989993" Properties=species:S:1:pos:R:3:spacegroup_kinds:I:1:forces:R:3 spacegroup="P 1" unit_cell=conventional occupancy="_JSON {\"0\": {\"Li\": 1}, \"1\": {\"Li\": 1}, \"2\": {\"Li\": 1}, \"3\": {\"Li\": 1}, \"4\": {\"Li\": 1}, \"5\": {\"Li\": 1}, \"6\": {\"P\": 1}, \"7\": {\"S\": 1}, \"8\": {\"S\": 1}, \"9\": {\"S\": 1}, \"10\": {\"S\": 1}, \"11\": {\"S\": 1}, \"12\": {\"Cl\": 1}}" energy=-53.3634147644043 free_energy=-53.3634147644043 stress="-0.0007942249649204314 -2.2835145330191153e-07 -1.570561778407864e-07 -2.2835145330191153e-07 -0.0007939478382468224 -1.0567954689122416e-07 -1.570561778407864e-07 -1.0567954689122416e-07 -0.0007938995258882642" pbc="T T T"
Li       9.25387995       7.24703237       3.10460814        0       0.00422589      -0.00243454       0.00344819
Li      12.55222827       5.34273008       5.79769826        1      -0.00421097       0.00243329      -0.00344126
Li       9.25387995       5.34273008       5.79769826        2       0.00422552       0.00243853      -0.00344725
Li      12.55222827       7.24703237       3.10460814        3      -0.00421191      -0.00243090       0.00344079
Li      10.90305411       4.39057894       3.10460814        4       0.00000234       0.00487687       0.00344874
Li      10.90305411       8.19918351       5.79769826        5       0.00000224      -0.00486332      -0.00344132
P        7.26870274       4.19658748       2.96743547        6       0.00008571       0.00004636       0.00003632
S        7.26870637       6.13578650       2.28182731        7      -0.00001832      -0.01090980       0.00384762
S        8.94810016       3.22699113       2.28182731        8      -0.00945930       0.00544037       0.00384776
S        5.58931258       3.22699113       2.28182731        9       0.00937808       0.00541277       0.00382989
S        7.26870637       4.19658958       5.02426588       10      -0.00001851      -0.00000975      -0.01157008
S       10.90305411       6.29488123       4.45115320       11      -0.00000138      -0.00000131      -0.00000035
Cl       0.00000000       0.00000000       0.00000000       12       0.00000066       0.00000151       0.00000095
