4
Lattice="3.128588 0.0 0.0 -1.5642939988088433 2.709436998432005 0.0 0.0 0.0 5.016955" Properties=species:S:1:pos:R:3:spacegroup_kinds:I:1:momenta:R:3:forces:R:3 spacegroup="P 1" unit_cell=conventional occupancy="_JSON {\"0\": {\"Al\": 1}, \"1\": {\"Al\": 1}, \"2\": {\"N\": 1}, \"3\": {\"N\": 1}}" energy=-29.623743057250977 free_energy=-29.623743057250977 stress="0.00430019898340106 -0.008672677911818027 0.0028820368461310863 -0.008672677911818027 -0.006943770218640566 -0.004434534814208746 0.0028820368461310863 -0.004434534814208746 -0.01483922079205513" pbc="T T T"
Al       1.54321203       0.89379621       2.53645983        0      -0.00705459      -0.41529123       0.79444987      -0.25250247       0.39302960      -0.87834537
Al       0.03580902       1.79893952       4.98957804        1       0.09337958      -0.29525110      -0.61192020      -0.16601187       0.14058164       0.62745267
N        1.59619757       0.90645094       4.40111845        2      -0.02189833       1.09350637       0.27120867      -0.08899803      -0.09593824       0.34911245
N       -0.05911263       1.83464209       1.91219259        3      -0.06442665      -0.38296396      -0.45373833       0.50751233      -0.43767276      -0.09821960
