4
Lattice="3.128588 0.0 0.0 -1.5642939988088433 2.709436998432005 0.0 0.0 0.0 5.016955" Properties=species:S:1:pos:R:3:spacegroup_kinds:I:1:momenta:R:3:forces:R:3 spacegroup="P 1" unit_cell=conventional occupancy="_JSON {\"0\": {\"Al\": 1}, \"1\": {\"Al\": 1}, \"2\": {\"N\": 1}, \"3\": {\"N\": 1}}" energy=-29.673717498779297 free_energy=-29.673717498779297 stress="-0.0022255564108490944 -1.409728497492324e-06 -9.08503405838701e-09 -1.409728497492324e-06 -0.002227517543360591 -3.5880255211395706e-08 -9.08503405838701e-09 -3.5880255211395706e-08 -0.005453679710626602" pbc="T T T"
Al       1.56429556       0.90314476       2.50490041        0       0.68448204       0.53670047       0.91071479      -0.00003449       0.00002033       0.00553188
Al      -0.00000156       1.80629224       5.01337791        1       0.31075784       0.39520501      -1.87833745       0.00003421      -0.00002098       0.00552427
N        1.56429556       0.90314476       4.41849749        2      -0.23293981      -0.79739853      -0.40745139      -0.00003645       0.00002144      -0.00553070
N       -0.00000156       1.80629224       1.91001999        3      -0.76230006      -0.13450696       1.37507406       0.00003669      -0.00002076      -0.00552534
4
Lattice="3.128588 0.0 0.0 -1.5642939988088433 2.709436998432005 0.0 0.0 0.0 5.016955" Properties=species:S:1:pos:R:3:spacegroup_kinds:I:1:momenta:R:3:forces:R:3 spacegroup="P 1" unit_cell=conventional occupancy="_JSON {\"0\": {\"Al\": 1}, \"1\": {\"Al\": 1}, \"2\": {\"N\": 1}, \"3\": {\"N\": 1}}" energy=-29.43359375 free_energy=-29.43359375 stress="-0.013773377053439617 -0.016446348279714584 0.012948798947036266 -0.016446348279714584 -0.023968616500496864 0.0099697420373559 0.012948798947036266 0.0099697420373559 -0.01205950416624546" pbc="T T T"
Al       1.60246141       0.92231284       2.54150849        0       0.57498209      -0.13491981       1.02882487      -1.31301343      -0.49033552      -0.87831342
Al       0.00328788       1.81111139       4.94718774        1      -0.44725807       0.00118064      -1.07867312      -0.30154103      -0.59423256       1.18011856
N        1.53678588       0.85870780       4.38099594        2       0.14052035      -0.46066731       0.20203876       0.28490704       0.67984545       1.25553668
N       -0.05228245       1.80432670       2.00436659        3      -0.26824442       0.59440646      -0.15219059       1.32964742       0.40472269      -1.55734146
4
Lattice="3.128588 0.0 0.0 -1.5642939988088433 2.709436998432005 0.0 0.0 0.0 5.016955" Properties=species:S:1:pos:R:3:spacegroup_kinds:I:1:momenta:R:3:forces:R:3 spacegroup="P 1" unit_cell=conventional occupancy="_JSON {\"0\": {\"Al\": 1}, \"1\": {\"Al\": 1}, \"2\": {\"N\": 1}, \"3\": {\"N\": 1}}" energy=-29.5672550201416 free_energy=-29.5672550201416 stress="0.012915789149701595 0.001702516688965261 0.003579401411116123 0.001702516688965261 -0.025857115164399147 -0.0053691258653998375 0.003579401411116123 -0.0053691258653998375 -0.01143515296280384" pbc="T T T"
Al       1.59598186       0.90138486       2.55101264        0      -0.85003974      -0.64755200      -0.41676331      -0.33522749       0.74370474      -1.26921248
Al      -0.01311800       1.79082859       4.96769658        1      -0.24557022      -0.74327786       1.65595789      -0.18280406      -0.17026848       1.21499753
N        1.52960408       0.86779351       4.41996340        2       0.16413065       0.60763588       0.63654558       0.31887868       0.39321429      -0.09056905
N       -0.00060095       1.87475188       1.90756519        3       0.93147928       0.78319397      -1.87574027       0.19915277      -0.96665072       0.14478365
4
Lattice="3.128588 0.0 0.0 -1.5642939988088433 2.709436998432005 0.0 0.0 0.0 5.016955" Properties=species:S:1:pos:R:3:spacegroup_kinds:I:1:momenta:R:3:forces:R:3 spacegroup="P 1" unit_cell=conventional occupancy="_JSON {\"0\": {\"Al\": 1}, \"1\": {\"Al\": 1}, \"2\": {\"N\": 1}, \"3\": {\"N\": 1}}" energy=-29.406272888183594 free_energy=-29.406272888183594 stress="0.010688619688153267 0.016498297452926636 -0.008164037950336933 0.016498297452926636 -0.009423400275409222 -0.01555392425507307 -0.008164037950336933 -0.01555392425507307 -0.06125420704483986" pbc="T T T"
Al       1.53423929       0.87298459       2.51007451        0      -1.60925368       0.09619193      -1.03262302       0.74608970       1.00298536       0.03482347
Al      -0.01349003       1.78470222       5.05709165        1       0.21561235      -0.04339799       1.72443260       0.02271145       0.40732986      -1.66436911
N        1.55208973       0.92225134       4.42203507        2       0.38659379       0.63935815      -0.93002911       0.04495900      -0.39009759      -0.56986022
N        0.09667396       1.88681818       1.81230439        3       1.00704754      -0.69215212       0.23821936      -0.81376028      -1.02021766       2.19940543
4
Lattice="3.128588 0.0 0.0 -1.5642939988088433 2.709436998432005 0.0 0.0 0.0 5.016955" Properties=species:S:1:pos:R:3:spacegroup_kinds:I:1:momenta:R:3:forces:R:3 spacegroup="P 1" unit_cell=conventional occupancy="_JSON {\"0\": {\"Al\": 1}, \"1\": {\"Al\": 1}, \"2\": {\"N\": 1}, \"3\": {\"N\": 1}}" energy=-29.201902389526367 free_energy=-29.201902389526367 stress="-0.026440761983394623 0.0381552092730999 -0.031382590532302856 0.0381552092730999 -0.004877440631389618 0.001543654128909111 -0.031382590532302856 0.001543654128909111 -0.051819805055856705" pbc="T T T"
Al       1.49382403       0.87740191       2.48150487        0      -0.08661645      -0.02748793       0.25595540       2.48428202      -0.46186361       1.22611463
Al      -0.02076737       1.79337852       5.08843295        1       0.00716714       0.60209073      -1.27068288       0.64723194       0.57433414      -2.36003923
N        1.60157221       0.96971686       4.33361321        2       0.49437276       0.53651028      -0.17473333      -0.53882396      -0.70145136       1.74608970
N        0.13924907       1.81421454       1.89535164        3      -0.41492345      -1.11111314       1.18946069      -2.59268975       0.58898115      -0.61216497
4
Lattice="3.128588 0.0 0.0 -1.5642939988088433 2.709436998432005 0.0 0.0 0.0 5.016955" Properties=species:S:1:pos:R:3:spacegroup_kinds:I:1:momenta:R:3:forces:R:3 spacegroup="P 1" unit_cell=conventional occupancy="_JSON {\"0\": {\"Al\": 1}, \"1\": {\"Al\": 1}, \"2\": {\"N\": 1}, \"3\": {\"N\": 1}}" energy=-29.574628829956055 free_energy=-29.574628829956055 stress="-0.023618126288056374 -0.014321270398795605 -0.011127927340567112 -0.014321270398795605 0.015030060894787312 -0.0028547055553644896 -0.011127927340567112 -0.0028547055553644896 -0.014440184459090233" pbc="T T T"
Al       1.53421961       0.88369269       2.53780579        0       1.55944035       0.36820909       1.55971036       0.29264453      -0.24000649      -0.91367710
Al      -0.00048008       1.82107764       4.98837342        1       1.01688561       0.86374308      -2.47525476       0.94369483       0.52251840       0.78486490
N        1.63583966       0.96584651       4.40663186        2      -0.31021903      -0.52489304       1.27117359      -1.15103722      -0.78907394       0.05687879
N       -0.01177518       1.75252279       1.90648730        3      -2.26610694      -0.70705920      -0.35562922      -0.08530219       0.50656217       0.07193308
4
Lattice="3.128588 0.0 0.0 -1.5642939988088433 2.709436998432005 0.0 0.0 0.0 5.016955" Properties=species:S:1:pos:R:3:spacegroup_kinds:I:1:momenta:R:3:forces:R:3 spacegroup="P 1" unit_cell=conventional occupancy="_JSON {\"0\": {\"Al\": 1}, \"1\": {\"Al\": 1}, \"2\": {\"N\": 1}, \"3\": {\"N\": 1}}" energy=-29.3720703125 free_energy=-29.3720703125 stress="-0.005629813764244318 -0.018719354644417763 0.015849467366933823 -0.018719354644417763 -0.03227315843105316 0.017212189733982086 0.015849467366933823 0.017212189733982086 -0.007298042997717857" pbc="T T T"
Al       1.57072835       0.88046442       2.56331975        0      -0.00039224      -0.37629501      -0.57844069      -1.34386539      -0.44065788      -1.50707650
Al       0.05055071       1.86456080       4.94968568        1       0.52727054       0.77034137       1.04960200      -0.49129149      -1.36433661       1.82584870
N        1.58204798       0.88176661       4.44992390        2      -0.27832272      -1.02263375      -0.55459299       0.15003918       1.16376042      -0.85894918
N       -0.12661083       1.75915453       1.88869867        3      -0.24855560       0.62858732       0.08343158       1.68511772       0.64123422       0.54017705
4
Lattice="3.128588 0.0 0.0 -1.5642939988088433 2.709436998432005 0.0 0.0 0.0 5.016955" Properties=species:S:1:pos:R:3:spacegroup_kinds:I:1:momenta:R:3:forces:R:3 spacegroup="P 1" unit_cell=conventional occupancy="_JSON {\"0\": {\"Al\": 1}, \"1\": {\"Al\": 1}, \"2\": {\"N\": 1}, \"3\": {\"N\": 1}}" energy=-29.596923828125 free_energy=-29.596923828125 stress="0.015976397320628166 -0.0045059435069561005 0.006018687039613724 -0.0045059435069561005 -0.025499414652585983 -0.004597160499542952 0.006018687039613724 -0.004597160499542952 -0.010013923980295658" pbc="T T T"
Al       1.53284807       0.86390066       2.51395075        0      -1.59464534      -0.16469685      -1.74991353      -0.27820686       0.89915842      -0.15420595
Al       0.06317842       1.83227865       5.00948379        1       0.38440003      -1.80666606       1.59449955      -0.58708376      -0.41271570       0.16725096
N        1.58572476       0.89623786       4.41422575        2       0.14193205       1.12964925      -0.09119153       0.25704071       0.38076630       0.00228139
N       -0.08152106       1.83862419       1.90381443        3       1.06831321       0.84171357       0.24660542       0.60824996      -0.86720866      -0.01532627
4
Lattice="3.128588 0.0 0.0 -1.5642939988088433 2.709436998432005 0.0 0.0 0.0 5.016955" Properties=species:S:1:pos:R:3:spacegroup_kinds:I:1:momenta:R:3:forces:R:3 spacegroup="P 1" unit_cell=conventional occupancy="_JSON {\"0\": {\"Al\": 1}, \"1\": {\"Al\": 1}, \"2\": {\"N\": 1}, \"3\": {\"N\": 1}}" energy=-29.462554931640625 free_energy=-29.462554931640625 stress="-0.005697176791727543 0.010849607177078724 -0.003906616009771824 0.010849607177078724 -0.01913394220173359 -0.012703199870884418 -0.003906616009771824 -0.012703199870884418 -0.011871347203850746" pbc="T T T"
Al       1.48347329       0.88264393       2.44527927        0      -0.30454535       1.01149488      -0.60004537       0.88393176       0.95768404       1.70776987
Al       0.06164410       1.77681259       5.07306071        1      -0.86715253      -0.75617419       0.43048918      -0.30080673       0.71655357      -1.72279811
N        1.61717711       0.94947183       4.40498425        2       0.38645879       0.04830090       0.18623277      -0.07233968      -0.67486078       0.48910579
N       -0.01486932       1.85626150       1.92266700        3       0.78523909      -0.30362165      -0.01667663      -0.51078546      -0.99937683      -0.47407702
4
Lattice="3.128588 0.0 0.0 -1.5642939988088433 2.709436998432005 0.0 0.0 0.0 5.016955" Properties=species:S:1:pos:R:3:spacegroup_kinds:I:1:momenta:R:3:forces:R:3 spacegroup="P 1" unit_cell=conventional occupancy="_JSON {\"0\": {\"Al\": 1}, \"1\": {\"Al\": 1}, \"2\": {\"N\": 1}, \"3\": {\"N\": 1}}" energy=-29.518747329711914 free_energy=-29.518747329711914 stress="-0.023370642215013504 0.0065400730818510056 -0.016098277643322945 0.0065400730818510056 0.006697577424347401 -0.00048236388829536736 -0.016098277643322945 -0.00048236388829536736 -0.022161239758133888" pbc="T T T"
Al       1.50607636       0.94974318       2.46463696        0       1.15921306       0.62635244       1.50689994       1.24247670      -0.60704684       1.15697360
Al       0.01335471       1.75088039       5.06242871        1      -0.91112011       0.14825230      -0.88962690       0.51474744       0.69610608      -1.43089008
N        1.62637959       0.90489619       4.42127856        2      -0.14223529      -0.64065040       0.21498381      -0.71771896      -0.51824260      -0.07984875
N        0.02538012       1.82158367       1.88963024        3      -0.10585763      -0.13395439      -0.83225693      -1.03950500       0.42918301       0.35376471
4
Lattice="3.128588 0.0 0.0 -1.5642939988088433 2.709436998432005 0.0 0.0 0.0 5.016955" Properties=species:S:1:pos:R:3:spacegroup_kinds:I:1:momenta:R:3:forces:R:3 spacegroup="P 1" unit_cell=conventional occupancy="_JSON {\"0\": {\"Al\": 1}, \"1\": {\"Al\": 1}, \"2\": {\"N\": 1}, \"3\": {\"N\": 1}}" energy=-29.605009078979492 free_energy=-29.605009078979492 stress="0.0015958836302161217 -0.006785990670323372 -0.003095246385782957 -0.006785990670323372 0.0017806257819756866 0.0017242461908608675 -0.003095246385782957 0.0017242461908608675 -0.023114027455449104" pbc="T T T"
Al       1.56693922       0.93861030       2.54470912        0       1.44875350      -0.98943807       1.48437402      -0.01659410      -0.29131618      -1.20301747
Al      -0.01304569       1.78057344       4.99752446        1       0.01689806       1.11024962      -1.70730031       0.38438466       0.02358411       0.50762671
N        1.58384205       0.87104970       4.42155571        2      -0.67927470      -0.02704948      -0.19037162      -0.39236689       0.15177760      -0.39792919
N        0.00122213       1.81989279       1.85992053        3      -0.78637685      -0.09376211       0.41329784       0.02457628       0.11595418       1.09332013
4
Lattice="3.128588 0.0 0.0 -1.5642939988088433 2.709436998432005 0.0 0.0 0.0 5.016955" Properties=species:S:1:pos:R:3:spacegroup_kinds:I:1:momenta:R:3:forces:R:3 spacegroup="P 1" unit_cell=conventional occupancy="_JSON {\"0\": {\"Al\": 1}, \"1\": {\"Al\": 1}, \"2\": {\"N\": 1}, \"3\": {\"N\": 1}}" energy=-29.470205307006836 free_energy=-29.470205307006836 stress="0.003203310538083315 -0.017801443114876747 0.011838349513709545 -0.017801443114876747 -0.04134898632764816 0.0073599121533334255 0.011838349513709545 0.0073599121533334255 -0.005160088185220957" pbc="T T T"
Al       1.62755626       0.89950080       2.54516752        0       1.04970777      -0.99981845      -0.80202982      -1.41064680       0.15933421      -0.91778934
Al      -0.00757055       1.81703570       4.95606282        1      -0.03757942       0.11959844      -0.16512715      -0.26242694      -0.84351528       1.41445529
N        1.52756232       0.85151201       4.42065483        2      -0.42752224       0.29023050      -0.07965737       0.31765836       0.98894632      -0.00115361
N       -0.06966667       1.84442110       1.93994534        3      -0.58460608       0.58998946       1.04681433       1.35541558      -0.30476499      -0.49551240
4
Lattice="3.128588 0.0 0.0 -1.5642939988088433 2.709436998432005 0.0 0.0 0.0 5.016955" Properties=species:S:1:pos:R:3:spacegroup_kinds:I:1:momenta:R:3:forces:R:3 spacegroup="P 1" unit_cell=conventional occupancy="_JSON {\"0\": {\"Al\": 1}, \"1\": {\"Al\": 1}, \"2\": {\"N\": 1}, \"3\": {\"N\": 1}}" energy=-29.452987670898438 free_energy=-29.452987670898438 stress="-0.013224909082055092 -0.02375008352100849 0.007911603897809982 -0.02375008352100849 -0.04793178290128708 -0.007333296816796064 0.007911603897809982 -0.007333296816796064 0.02863277494907379" pbc="T T T"
Al       1.63184038       0.85684029       2.46693546        0      -0.97589036      -0.55899597      -1.34838401      -1.39010000       1.11026049       1.17304063
Al      -0.02377742       1.82170278       4.98999599        1      -0.28018863       0.45883496       1.28013552      -0.08532949       0.08283550       0.34697270
N        1.52792698       0.92957748       4.44479003        2       0.11446491       0.97873265       0.08012585       0.22036499      -0.17398803       0.05598494
N       -0.04718870       1.83921502       2.00086009        3       1.14161410      -0.87857162      -0.01187740       1.25506425      -1.01910782      -1.57599807
4
Lattice="3.128588 0.0 0.0 -1.5642939988088433 2.709436998432005 0.0 0.0 0.0 5.016955" Properties=species:S:1:pos:R:3:spacegroup_kinds:I:1:momenta:R:3:forces:R:3 spacegroup="P 1" unit_cell=conventional occupancy="_JSON {\"0\": {\"Al\": 1}, \"1\": {\"Al\": 1}, \"2\": {\"N\": 1}, \"3\": {\"N\": 1}}" energy=-29.53631591796875 free_energy=-29.53631591796875 stress="-0.01985756866633892 0.013828967697918415 -0.0057174148969352245 0.013828967697918415 -0.00316391303204 -0.0016709717456251383 -0.0057174148969352245 -0.0016709717456251383 -0.0062606907449662685" pbc="T T T"
Al       1.56291507       0.86348347       2.43836893        0      -1.44558793       0.38889129       0.34075013       0.67285979       0.11609358       1.45909572
Al      -0.01834142       1.83613132       5.05736571        1       0.19731449      -0.00921564       1.04742116       0.06595364       0.15003647      -1.19267416
N        1.54726699       0.95741149       4.47045640        2      -0.01023970       0.05685063       0.14844017       0.09761302      -0.44420984      -0.65174717
N        0.05576965       1.77068664       1.90062724        3       1.25851315      -0.43652628      -1.53661150      -0.83642614       0.17807972       0.38532567
4
Lattice="3.128588 0.0 0.0 -1.5642939988088433 2.709436998432005 0.0 0.0 0.0 5.016955" Properties=species:S:1:pos:R:3:spacegroup_kinds:I:1:momenta:R:3:forces:R:3 spacegroup="P 1" unit_cell=conventional occupancy="_JSON {\"0\": {\"Al\": 1}, \"1\": {\"Al\": 1}, \"2\": {\"N\": 1}, \"3\": {\"N\": 1}}" energy=-29.5310001373291 free_energy=-29.5310001373291 stress="-0.01829386316239834 0.015707451850175858 -0.011607667431235313 0.015707451850175858 0.0031481129117310047 0.00460567744448781 -0.011607667431235313 0.00460567744448781 -0.01725897751748562" pbc="T T T"
Al       1.54701075       0.87273545       2.46070914        0       0.71855720      -0.11584375       0.49435395       1.07476711      -0.28505835       1.06925464
Al      -0.01761630       1.84389391       5.05391119        1       0.19346363       0.17720492      -0.69190237       0.23187628      -0.07941933      -1.16825128
N        1.56395356       0.94331122       4.45961397        2       0.32487468      -0.12409485      -0.51346204      -0.11547086      -0.20503268      -0.72920287
N        0.06831351       1.75176764       1.87546334        3      -1.23689555       0.06273366       0.71101041      -1.19117260       0.56951040       0.82819957
4
Lattice="3.128588 0.0 0.0 -1.5642939988088433 2.709436998432005 0.0 0.0 0.0 5.016955" Properties=species:S:1:pos:R:3:spacegroup_kinds:I:1:momenta:R:3:forces:R:3 spacegroup="P 1" unit_cell=conventional occupancy="_JSON {\"0\": {\"Al\": 1}, \"1\": {\"Al\": 1}, \"2\": {\"N\": 1}, \"3\": {\"N\": 1}}" energy=-29.613210678100586 free_energy=-29.613210678100586 stress="-0.008381523191928864 -0.00427659135311842 0.005492862313985825 -0.00427659135311842 -0.013937116600573063 0.0014804811216890812 0.005492862313985825 0.0014804811216890812 0.012475415132939816" pbc="T T T"
Al       1.57767909       0.87033376       2.48321563        0       0.42145915      -0.10086017       0.75449375      -0.50598764       0.14215356       0.64867681
Al       0.00878679       1.84488740       5.00616575        1       0.94842579       0.04829724      -0.67234705      -0.28191131      -0.37569731       0.05942790
N        1.54733739       0.91884309       4.41695259        2      -0.50233646      -0.06173870      -0.86681646       0.26756814       0.16352481       0.34766698
N       -0.02491941       1.77881441       1.96659667        3      -0.86754851       0.11430163       0.78466970       0.52033079       0.07001859      -1.05577171
4
Lattice="3.128588 0.0 0.0 -1.5642939988088433 2.709436998432005 0.0 0.0 0.0 5.016955" Properties=species:S:1:pos:R:3:spacegroup_kinds:I:1:momenta:R:3:forces:R:3 spacegroup="P 1" unit_cell=conventional occupancy="_JSON {\"0\": {\"Al\": 1}, \"1\": {\"Al\": 1}, \"2\": {\"N\": 1}, \"3\": {\"N\": 1}}" energy=-29.55784034729004 free_energy=-29.55784034729004 stress="-0.01636376418173313 -0.002947767497971654 0.012903736904263496 -0.002947767497971654 -0.00620766868814826 0.0015376878436654806 0.012903736904263496 0.0015376878436654806 -0.002714479109272361" pbc="T T T"
Al       1.59068815       0.88023427       2.52274584        0      -0.41625585       0.17887044       0.33160800      -0.90884101      -0.14030801      -0.36867899
Al       0.01872292       1.83477379       4.97781987        1       0.14974026      -0.20763068      -0.17578550      -0.72829676      -0.10046484       0.72652555
N        1.52039167       0.92489993       4.39464375        2       0.19754321       0.25939931       0.47781830       0.72475815      -0.09604943       0.71574384
N       -0.04216865       1.77342024       1.96745700        3       0.06897236      -0.23063908      -0.63364086       0.91237962       0.33682209      -1.07359064
4
Lattice="3.128588 0.0 0.0 -1.5642939988088433 2.709436998432005 0.0 0.0 0.0 5.016955" Properties=species:S:1:pos:R:3:spacegroup_kinds:I:1:momenta:R:3:forces:R:3 spacegroup="P 1" unit_cell=conventional occupancy="_JSON {\"0\": {\"Al\": 1}, \"1\": {\"Al\": 1}, \"2\": {\"N\": 1}, \"3\": {\"N\": 1}}" energy=-29.621112823486328 free_energy=-29.621112823486328 stress="-0.02150089293718338 0.005276511888951063 -0.0032674320973455906 0.005276511888951063 0.010657675564289093 0.0019249068573117256 -0.0032674320973455906 0.0019249068573117256 -0.0015898765996098518" pbc="T T T"
Al       1.54767650       0.89587760       2.50832857        0      -0.85810022       0.46896510      -1.00003023       0.39160511      -0.39029106      -0.15032853
Al       0.00665804       1.82067516       5.00342492        1      -0.72966954      -0.11082652       1.46536808      -0.00949897       0.22697061       0.34863177
N        1.57185925       0.94293298       4.45440722        2       0.62349887      -0.37686507       0.64593146      -0.01969788      -0.43335390      -0.83890122
N        0.01256032       1.75229418       1.88600533        3       0.96427089       0.01872653      -1.11126935      -0.36240819       0.59667438       0.64059794
4
Lattice="3.128588 0.0 0.0 -1.5642939988088433 2.709436998432005 0.0 0.0 0.0 5.016955" Properties=species:S:1:pos:R:3:spacegroup_kinds:I:1:momenta:R:3:forces:R:3 spacegroup="P 1" unit_cell=conventional occupancy="_JSON {\"0\": {\"Al\": 1}, \"1\": {\"Al\": 1}, \"2\": {\"N\": 1}, \"3\": {\"N\": 1}}" energy=-29.520856857299805 free_energy=-29.520856857299805 stress="-0.014047256670892239 0.011820870451629162 -0.014255554415285587 0.011820870451629162 -0.005614777561277151 0.00936159212142229 -0.014255554415285587 0.00936159212142229 -0.019570916891098022" pbc="T T T"
Al       1.52999428       0.91403914       2.46474570        0       0.09545059      -0.23101221      -1.18071384       1.21875215      -0.63577211       0.99289870
Al      -0.00890653       1.82180733       5.05208965        1       0.31216909      -0.10747485       0.45537794       0.39472431      -0.38378635      -1.12710261
N        1.59437709       0.88605555       4.45928982        2      -0.04798983      -0.53350302      -0.20523329      -0.40810210       0.35579187      -0.79021561
N        0.05384448       1.77207216       1.87144998        3      -0.35962986       0.87199011       0.93056918      -1.20537460       0.66376615       0.92441964
4
Lattice="3.128588 0.0 0.0 -1.5642939988088433 2.709436998432005 0.0 0.0 0.0 5.016955" Properties=species:S:1:pos:R:3:spacegroup_kinds:I:1:momenta:R:3:forces:R:3 spacegroup="P 1" unit_cell=conventional occupancy="_JSON {\"0\": {\"Al\": 1}, \"1\": {\"Al\": 1}, \"2\": {\"N\": 1}, \"3\": {\"N\": 1}}" energy=-29.61878776550293 free_energy=-29.61878776550293 stress="0.010117623023688793 -0.0018219108460471034 -0.0018730686279013753 -0.0018219108460471034 -0.02478303574025631 0.004591130651533604 -0.0018730686279013753 0.004591130651533604 2.633255826367531e-05" pbc="T T T"
Al       1.53818032       0.90928016       2.47247630        0       0.23228545      -0.27447285       1.41733302       0.21201059       0.18702132       0.85530639
Al       0.01802692       1.81430743       5.03506516        1       0.60360838      -0.42930261      -1.11140787       0.03760166      -0.69444066      -0.55142790
N        1.59518014       0.85128049       4.42414641        2       0.09084613       0.02420664      -0.77345497      -0.19470169       0.84070551       0.01228867
N       -0.01452984       1.83034434       1.92467354        3      -0.92673997       0.67956888       0.46752985      -0.05491059      -0.33328587      -0.31616667
4
Lattice="3.128588 0.0 0.0 -1.5642939988088433 2.709436998432005 0.0 0.0 0.0 5.016955" Properties=species:S:1:pos:R:3:spacegroup_kinds:I:1:momenta:R:3:forces:R:3 spacegroup="P 1" unit_cell=conventional occupancy="_JSON {\"0\": {\"Al\": 1}, \"1\": {\"Al\": 1}, \"2\": {\"N\": 1}, \"3\": {\"N\": 1}}" energy=-29.623743057250977 free_energy=-29.623743057250977 stress="0.00430019898340106 -0.008672677911818027 0.0028820368461310863 -0.008672677911818027 -0.006943770218640566 -0.004434534814208746 0.0028820368461310863 -0.004434534814208746 -0.01483922079205513" pbc="T T T"
Al       1.54321203       0.89379621       2.53645983        0      -0.00705459      -0.41529123       0.79444987      -0.25250247       0.39302960      -0.87834537
Al       0.03580902       1.79893952       4.98957804        1       0.09337958      -0.29525110      -0.61192020      -0.16601187       0.14058164       0.62745267
N        1.59619757       0.90645094       4.40111845        2      -0.02189833       1.09350637       0.27120867      -0.08899803      -0.09593824       0.34911245
N       -0.05911263       1.83464209       1.91219259        3      -0.06442665      -0.38296396      -0.45373833       0.50751233      -0.43767276      -0.09821960
