4
Lattice="3.128588 0.0 0.0 -1.5642939988088433 2.709436998432005 0.0 0.0 0.0 5.016955" Properties=species:S:1:pos:R:3:spacegroup_kinds:I:1:forces:R:3 spacegroup="P 1" unit_cell=conventional occupancy="_JSON {\"0\": {\"Al\": 1}, \"1\": {\"Al\": 1}, \"2\": {\"N\": 1}, \"3\": {\"N\": 1}}" energy=-29.673717498779297 free_energy=-29.673717498779297 stress="-0.0022255564108490944 -1.409728497492324e-06 -9.08503405838701e-09 -1.409728497492324e-06 -0.002227517543360591 -3.5880255211395706e-08 -9.08503405838701e-09 -3.5880255211395706e-08 -0.005453679710626602" pbc="T T T"
Al       1.56429556       0.90314476       2.50490041        0      -0.00003449       0.00002033       0.00553188
Al      -0.00000156       1.80629224       5.01337791        1       0.00003421      -0.00002098       0.00552427
N        1.56429556       0.90314476       4.41849749        2      -0.00003645       0.00002144      -0.00553070
N       -0.00000156       1.80629224       1.91001999        3       0.00003669      -0.00002076      -0.00552534
