32
Lattice="6.17176593 0.0 0.0 0.0 8.01859859 0.0 0.0 0.0 13.03281824" Properties=species:S:1:pos:R:3:spacegroup_kinds:I:1:forces:R:3 spacegroup="P 1" unit_cell=conventional occupancy="_JSON {\"0\": {\"Li\": 1}, \"1\": {\"Li\": 1}, \"2\": {\"Li\": 1}, \"3\": {\"Li\": 1}, \"4\": {\"Li\": 1}, \"5\": {\"Li\": 1}, \"6\": {\"Li\": 1}, \"7\": {\"Li\": 1}, \"8\": {\"Li\": 1}, \"9\": {\"Li\": 1}, \"10\": {\"Li\": 1}, \"11\": {\"Li\": 1}, \"12\": {\"P\": 1}, \"13\": {\"P\": 1}, \"14\": {\"P\": 1}, \"15\": {\"P\": 1}, \"16\": {\"S\": 1}, \"17\": {\"S\": 1}, \"18\": {\"S\": 1}, \"19\": {\"S\": 1}, \"20\": {\"S\": 1}, \"21\": {\"S\": 1}, \"22\": {\"S\": 1}, \"23\": {\"S\": 1}, \"24\": {\"S\": 1}, \"25\": {\"S\": 1}, \"26\": {\"S\": 1}, \"27\": {\"S\": 1}, \"28\": {\"S\": 1}, \"29\": {\"S\": 1}, \"30\": {\"S\": 1}, \"31\": {\"S\": 1}}" energy=-140.3463134765625 free_energy=-140.3463134765625 stress="-0.002888645976781845 1.8207464425046282e-09 2.0735204664390494e-09 1.8207464425046282e-09 -0.004072283394634724 1.0796374461108371e-08 2.0735204664390494e-09 1.0796374461108371e-08 -0.0025935936719179153" pbc="T T T"
Li       2.40166818       0.26892253       4.33377964        0      -0.01548949       0.00236081       0.00063527
Li       3.77009791       7.74967601       8.69903848        1       0.01548994      -0.00236104      -0.00063354
Li       5.48755106       7.74967601       2.18262938        2      -0.01549431      -0.00236087      -0.00063236
Li       0.68421475       0.26892245      10.85018872        3       0.01549143       0.00236104       0.00063243
Li       3.77009789       4.27822192       8.69903843        4       0.01548774       0.00235800      -0.00063199
Li       2.40166815       3.74037678       4.33377963        5      -0.01549000      -0.00235970       0.00063413
Li       0.68421480       3.74037681      10.85018869        6       0.01549077      -0.00236051       0.00063130
Li       5.48755101       4.27822188       2.18262940        7      -0.01549143       0.00236042      -0.00062992
Li       3.08588292      -0.00000009       0.00000005        8      -0.00000075      -0.00000140      -0.00000225
Li       0.00000002      -0.00000008       6.51640921        9       0.00000119       0.00000166      -0.00000234
Li       3.08588296       4.00929938       0.00000001       10      -0.00000175      -0.00000019       0.00000138
Li      -0.00000001       4.00929922       6.51640918       11      -0.00000054      -0.00000110       0.00000020
P        0.93932953       2.00464926       1.16793469       12      -0.00066724       0.00001270       0.03303399
P        5.23243628       6.01394884      11.86488430       13       0.00066631       0.00000232      -0.03305683
P        4.02521222       6.01394890       5.34847534       14      -0.00065139       0.00000142      -0.03306311
P        2.14655387       2.00464964       7.68434318       15       0.00065373       0.00000188       0.03305227
S        5.07612376       2.00464965       1.30682510       16       0.00280254       0.00000068       0.01274901
S        1.09564234       6.01394883      11.72599292       17      -0.00280135       0.00000196      -0.01274762
S        1.99024107       6.01394895       5.20958391       18       0.00279252       0.00000086      -0.01274333
S        4.18152497       2.00464970       7.82323414       19      -0.00279052      -0.00000100       0.01274749
S        1.68772167       2.00464972      12.25093579       20       0.03397106      -0.00000014       0.02524940
S        4.48404415       6.01394887       0.78188250       21      -0.03397397       0.00000039      -0.02523753
S        4.77360467       6.01394891       7.29829150       22       0.03397293       0.00000083      -0.02523632
S        1.39816138       2.00464972       5.73452696       23      -0.03397376       0.00000021       0.02524039
S        1.68016694       0.28148001       2.00960382       24       0.02273583      -0.00260080      -0.01691610
S        4.49159900       7.73711927      11.02321410       25      -0.02272924       0.00258543       0.01692508
S        4.76604988       7.73711917       4.50680509       26       0.02272865       0.00258116       0.01692884
S        1.40571583       0.28147970       8.52601310       27      -0.02272822      -0.00258674      -0.01692703
S        4.49159904       4.29077894      11.02321423       28      -0.02273317      -0.00259005       0.01692205
S        1.68016697       3.72781958       2.00960393       29       0.02273101       0.00258793      -0.01692492
S        1.40571582       3.72781970       8.52601312       30      -0.02272771       0.00258624      -0.01692695
S        4.76604992       4.29077868       4.50680506       31       0.02272910      -0.00258246       0.01692893
