32
Lattice="6.17176593 0.0 0.0 0.0 8.01859859 0.0 0.0 0.0 13.03281824" Properties=species:S:1:pos:R:3:spacegroup_kinds:I:1:momenta:R:3:forces:R:3 spacegroup="P 1" unit_cell=conventional occupancy="_JSON {\"0\": {\"Li\": 1}, \"1\": {\"Li\": 1}, \"2\": {\"Li\": 1}, \"3\": {\"Li\": 1}, \"4\": {\"Li\": 1}, \"5\": {\"Li\": 1}, \"6\": {\"Li\": 1}, \"7\": {\"Li\": 1}, \"8\": {\"Li\": 1}, \"9\": {\"Li\": 1}, \"10\": {\"Li\": 1}, \"11\": {\"Li\": 1}, \"12\": {\"P\": 1}, \"13\": {\"P\": 1}, \"14\": {\"P\": 1}, \"15\": {\"P\": 1}, \"16\": {\"S\": 1}, \"17\": {\"S\": 1}, \"18\": {\"S\": 1}, \"19\": {\"S\": 1}, \"20\": {\"S\": 1}, \"21\": {\"S\": 1}, \"22\": {\"S\": 1}, \"23\": {\"S\": 1}, \"24\": {\"S\": 1}, \"25\": {\"S\": 1}, \"26\": {\"S\": 1}, \"27\": {\"S\": 1}, \"28\": {\"S\": 1}, \"29\": {\"S\": 1}, \"30\": {\"S\": 1}, \"31\": {\"S\": 1}}" energy=-139.58827209472656 free_energy=-139.58827209472656 stress="-0.0009371638298034668 -0.00286347814835608 -5.6351425882894546e-05 -0.00286347814835608 -0.0069693708792328835 -0.0007586472784169018 -5.6351425882894546e-05 -0.0007586472784169018 -0.00786716677248478" pbc="T T T"
Li       2.37443430       0.40237344       4.36950785        0       0.15831324       0.07526853      -0.19218018      -0.06761398      -0.12516131       0.00416325
Li       3.54730616       7.75203973       8.78531509        1       0.27517410       0.02293447      -0.58400102       0.27511138      -0.05921068       0.04733633
Li       5.53885999       7.60260124       2.32177547        2      -0.50496799       1.16431679      -0.19803970       0.15795675       0.58507448       0.21270221
Li       0.68215436       0.34839524      10.87491474        3       0.05976462       0.05154253      -0.30981949      -0.10820007      -0.26374662      -0.27291691
Li       3.72004506       4.37053638       8.86433825        4       0.11554537       0.98987778      -0.09226119      -0.17080408      -0.14573039       0.04178226
Li       2.38930766       3.87583880       4.50307544        5       0.06619987       0.15145752       0.57064234      -0.20553371      -0.09557253      -0.20454918
Li       0.62233979       3.72333859      10.87964767        6       0.18639677      -0.14670594       0.22159196       0.19239423      -0.27068025       0.06659214
Li       5.87187653       4.38468984       2.04329964        7      -0.65515855      -0.00081353      -0.23052116      -0.40583563      -0.18330203       0.20328140
Li       2.62828030      -0.41270753       0.01293653        8      -0.39745881      -0.58081852      -0.14578265       0.44187450      -0.37072122      -0.59274256
Li      -0.19197336       0.10326633       6.64409833        9       0.61698809      -0.41653766      -0.36692311      -0.02794968      -0.07223646      -0.12060620
Li       3.59748733       3.31722182      -0.00037774       10      -0.41087968       0.11663403      -0.28292153      -0.09270565       0.05773346       0.36896798
Li      -0.35417884       3.70915601       6.59248407       11      -0.17720130      -0.55829228      -0.02331441      -0.09724374       0.10153741       0.03310559
P        1.06237807       1.93482852       1.06471489       12      -0.81307808       1.26031573      -0.41736716      -0.75253433      -0.02460064       0.91181529
P        5.37414957       6.03619969      11.90850734       13      -0.01737453       0.10007825      -0.08117966       0.22949682       0.29767823      -0.62716913
P        3.93406705       6.05287195       5.36527561       14      -0.62252175      -0.28967596      -0.42023616      -0.42447925      -0.04654926       0.18123022
P        2.03321153       2.07659230       7.71360951       15       0.56170400       0.32972787       0.28519038      -0.50514299       0.69776738      -0.79278147
S        5.17188517       1.95534387       1.21160700       16       0.31876999       0.26090878       0.90730629       0.63595510      -0.08239718       0.30843478
S        1.24203661       5.92903893      11.42173306       17       0.21161751       0.87962214       0.15687233      -0.55041432       0.49387044       0.50845426
S        1.84501118       6.11394432       5.21235665       18       0.43731112       0.23925993       0.06067045       0.96201038      -0.09516558      -0.10215675
S        4.03285336       2.06484523       7.91740142       19      -0.78417444      -0.51029204       0.76653575       0.60195112       0.04690616       0.07446726
S        1.82418609       1.84334536      12.23353768       20      -0.13790904      -0.70162824       0.19929194       0.20994323       0.03300667      -1.14168298
S        4.79856328       6.08797738       0.82242275       21       0.04119760       0.07575203      -0.97578265      -0.31730187      -0.33687183       0.24561587
S        4.57912016       6.01849957       7.36812828       22       1.65593218       0.99557879       0.36488536       0.11175110       0.04713433      -0.34192377
S        1.30445248       2.08114251       5.70873651       23      -0.57583446      -1.01354940       0.32017975       0.13076998       0.05892205       0.38070235
S        1.76912037       0.22207879       2.00349033       24       1.29637757       1.59885471      -0.46706134      -0.36634105       0.21566504       0.43237996
S        4.53247615       7.74066209      11.10849692       25      -0.42497699      -0.68422254      -0.55182403       0.03514636      -0.15795317      -0.09772908
S        4.70615965       7.83765671       4.64952505       26      -1.67799619      -0.32193330      -0.28876242      -0.05271494      -0.33005762      -0.23274045
S        1.30639454       0.35971551       8.43631442       27      -0.22574183      -0.71294725       1.31295429      -0.38952190      -0.74455142       0.71615076
S        4.51812002       4.30551605      11.19547349       28      -0.76454070      -0.28194005       0.66317559      -0.00195569      -0.01541247      -0.61841118
S        1.85540176       3.65159861       1.80453932       29       0.31636270      -0.31248565      -0.81895373       0.43031079       0.15192743       0.34287497
S        1.20479810       3.75411922       8.55573274       30       0.67759697      -0.60364919       0.77262064       0.29707396      -0.01857453      -0.09285974
S        4.71908070       4.32305021       4.46922862       31       1.19456255      -1.17663837      -0.15498562      -0.17545362       0.65127200       0.15821245
