32
Lattice="6.17176593 0.0 0.0 0.0 8.01859859 0.0 0.0 0.0 13.03281824" Properties=species:S:1:pos:R:3:spacegroup_kinds:I:1:momenta:R:3:forces:R:3 spacegroup="P 1" unit_cell=conventional occupancy="_JSON {\"0\": {\"Li\": 1}, \"1\": {\"Li\": 1}, \"2\": {\"Li\": 1}, \"3\": {\"Li\": 1}, \"4\": {\"Li\": 1}, \"5\": {\"Li\": 1}, \"6\": {\"Li\": 1}, \"7\": {\"Li\": 1}, \"8\": {\"Li\": 1}, \"9\": {\"Li\": 1}, \"10\": {\"Li\": 1}, \"11\": {\"Li\": 1}, \"12\": {\"P\": 1}, \"13\": {\"P\": 1}, \"14\": {\"P\": 1}, \"15\": {\"P\": 1}, \"16\": {\"S\": 1}, \"17\": {\"S\": 1}, \"18\": {\"S\": 1}, \"19\": {\"S\": 1}, \"20\": {\"S\": 1}, \"21\": {\"S\": 1}, \"22\": {\"S\": 1}, \"23\": {\"S\": 1}, \"24\": {\"S\": 1}, \"25\": {\"S\": 1}, \"26\": {\"S\": 1}, \"27\": {\"S\": 1}, \"28\": {\"S\": 1}, \"29\": {\"S\": 1}, \"30\": {\"S\": 1}, \"31\": {\"S\": 1}}" energy=-140.31869506835938 free_energy=-140.31869506835938 stress="-0.007170618046075106 -5.032710692631781e-09 -2.235243545811727e-09 -5.032710692631781e-09 -0.00825938954949379 -3.6008054316027938e-09 -2.235243545811727e-09 -3.6008054316027938e-09 -0.0052663106471300125" pbc="T T T"
Li       2.40329652       0.26860172       4.33400832        0       0.00000000       0.00000000       0.00000000      -0.02603509       0.00549076      -0.00432158
Li       3.76846941       7.74999687       8.69880992        1       0.00000000       0.00000000       0.00000000       0.02603729      -0.00549118       0.00432327
Li       5.48917948       7.74999687       2.18240080        2       0.00000000       0.00000000       0.00000000      -0.02603537      -0.00549057       0.00432285
Li       0.68258645       0.26860172      10.85041744        3       0.00000000       0.00000000       0.00000000       0.02603580       0.00549229      -0.00431981
Li       3.76846941       4.27790102       8.69880992        4       0.00000000       0.00000000       0.00000000       0.02603616       0.00549106       0.00432292
Li       2.40329652       3.74069757       4.33400832        5       0.00000000       0.00000000       0.00000000      -0.02603567      -0.00549072      -0.00432173
Li       0.68258645       3.74069757      10.85041744        6       0.00000000       0.00000000       0.00000000       0.02603597      -0.00549231      -0.00431967
Li       5.48917948       4.27790102       2.18240080        7       0.00000000       0.00000000       0.00000000      -0.02603630       0.00549087       0.00432270
Li       3.08588297       0.00000000       0.00000000        8       0.00000000       0.00000000       0.00000000      -0.00000063      -0.00000085      -0.00000173
Li       0.00000000       0.00000000       6.51640912        9       0.00000000       0.00000000       0.00000000       0.00000115      -0.00000024      -0.00000085
Li       3.08588297       4.00929929       0.00000000       10       0.00000000       0.00000000       0.00000000      -0.00000053       0.00000116       0.00000008
Li       0.00000000       4.00929929       6.51640912       11       0.00000000       0.00000000       0.00000000      -0.00000005       0.00000086       0.00000075
P        0.94051010       2.00464965       1.16601784       12       0.00000000       0.00000000       0.00000000      -0.02067180      -0.00000127       0.02375985
P        5.23125583       6.01394894      11.86680040       13       0.00000000       0.00000000       0.00000000       0.02066625       0.00000043      -0.02375957
P        4.02639307       6.01394894       5.35039128       14       0.00000000       0.00000000       0.00000000      -0.02066726       0.00000121      -0.02375588
P        2.14537286       2.00464965       7.68242696       15       0.00000000       0.00000000       0.00000000       0.02066900      -0.00000041       0.02375835
S        5.08970823       2.00464965       1.30575389       16       0.00000000       0.00000000       0.00000000      -0.25450596      -0.00000005       0.01679049
S        1.08205770       6.01394894      11.72706435       17       0.00000000       0.00000000       0.00000000       0.25450718       0.00000050      -0.01679210
S        2.00382526       6.01394894       5.21065523       18       0.00000000       0.00000000       0.00000000      -0.25450543      -0.00000110      -0.01679181
S        4.16794067       2.00464965       7.82216301       19       0.00000000       0.00000000       0.00000000       0.25450045      -0.00000010       0.01678982
S        1.68132889       2.00464965      12.25955363       20       0.00000000       0.00000000       0.00000000       0.10912253      -0.00000000      -0.16719580
S        4.49043704       6.01394894       0.77326461       21       0.00000000       0.00000000       0.00000000      -0.10912069      -0.00000003       0.16718143
S        4.76721186       6.01394894       7.28967373       22       0.00000000       0.00000000       0.00000000       0.10912059       0.00000023       0.16717896
S        1.40455407       2.00464965       5.74314451       23       0.00000000       0.00000000       0.00000000      -0.10911980       0.00000043      -0.16718116
S        1.67233151       0.29287049       2.00524453       24       0.00000000       0.00000000       0.00000000       0.13957787      -0.21272591       0.08709925
S        4.49943442       7.72572810      11.02757371       25       0.00000000       0.00000000       0.00000000      -0.13957594       0.21272454      -0.08709170
S        4.75821447       7.72572810       4.51116459       26       0.00000000       0.00000000       0.00000000       0.13957474       0.21272416      -0.08709113
S        1.41355146       0.29287049       8.52165365       27       0.00000000       0.00000000       0.00000000      -0.13957560      -0.21272068       0.08709152
S        4.49943442       4.30216979      11.02757371       28       0.00000000       0.00000000       0.00000000      -0.13957730      -0.21272559      -0.08709354
S        1.67233151       3.71642880       2.00524453       29       0.00000000       0.00000000       0.00000000       0.13957854       0.21272644       0.08709904
S        1.41355146       3.71642880       8.52165365       30       0.00000000       0.00000000       0.00000000      -0.13957666       0.21272132       0.08709008
S        4.75821447       4.30216979       4.51116459       31       0.00000000       0.00000000       0.00000000       0.13957657      -0.21272530      -0.08709311
32
Lattice="6.17176593 0.0 0.0 0.0 8.01859859 0.0 0.0 0.0 13.03281824" Properties=species:S:1:pos:R:3:spacegroup_kinds:I:1:momenta:R:3:forces:R:3 spacegroup="P 1" unit_cell=conventional occupancy="_JSON {\"0\": {\"Li\": 1}, \"1\": {\"Li\": 1}, \"2\": {\"Li\": 1}, \"3\": {\"Li\": 1}, \"4\": {\"Li\": 1}, \"5\": {\"Li\": 1}, \"6\": {\"Li\": 1}, \"7\": {\"Li\": 1}, \"8\": {\"Li\": 1}, \"9\": {\"Li\": 1}, \"10\": {\"Li\": 1}, \"11\": {\"Li\": 1}, \"12\": {\"P\": 1}, \"13\": {\"P\": 1}, \"14\": {\"P\": 1}, \"15\": {\"P\": 1}, \"16\": {\"S\": 1}, \"17\": {\"S\": 1}, \"18\": {\"S\": 1}, \"19\": {\"S\": 1}, \"20\": {\"S\": 1}, \"21\": {\"S\": 1}, \"22\": {\"S\": 1}, \"23\": {\"S\": 1}, \"24\": {\"S\": 1}, \"25\": {\"S\": 1}, \"26\": {\"S\": 1}, \"27\": {\"S\": 1}, \"28\": {\"S\": 1}, \"29\": {\"S\": 1}, \"30\": {\"S\": 1}, \"31\": {\"S\": 1}}" energy=-140.28009033203125 free_energy=-140.28009033203125 stress="-0.005243377760052681 0.00010550443403190002 0.0005096538225188851 0.00010550443403190002 -0.00689195329323411 -7.262876897584647e-05 0.0005096538225188851 -7.262876897584647e-05 -0.006531198043376207" pbc="T T T"
Li       2.39270800       0.24887909       4.36889363        0      -0.15037540      -0.44755884       0.17550649      -0.06678304       0.05072133      -0.07708462
Li       3.80522807       7.72437968       8.72147681        1       0.44048484       0.13148425       0.39879468      -0.06951889       0.03661035      -0.03300549
Li       5.48032822       7.74142011       2.17011076        2      -0.19147757      -0.07464227      -0.04311766       0.03160655       0.04450560       0.02568664
Li       0.66052557       0.20700531      10.88721734        3      -0.25064332      -0.45949381       0.39736771       0.07304022       0.17951831      -0.10572863
Li       3.75371832       4.26492628       8.68752167        4      -0.23728823       0.12994427      -0.22791299       0.04307492       0.04425211       0.02630474
Li       2.41363993       3.71111366       4.31353929        5      -0.22519645      -0.50816567       0.02585761      -0.01994566       0.05154639       0.03483563
Li       0.71998866       3.74428589      10.85079796        6       0.38825624       0.12454692       0.01066143      -0.05538194       0.01677942      -0.03158601
Li       5.47236218       4.29314990       2.19053003        7      -0.13278591       0.02738253       0.05579733       0.02452107      -0.03129980      -0.02548347
Li       3.09709795       0.00679055      -0.03150213        8       0.14352262       0.05437983      -0.26788196      -0.07384579       0.01303684       0.12483306
Li      -0.01537018      -0.02734007       6.50604909        9      -0.05185644      -0.21384088      -0.19659805       0.07279287       0.04614428       0.03632079
Li       3.07276640       3.98276344      -0.01702069       10      -0.04757539      -0.14605629      -0.14689218       0.02864285       0.03499343       0.03105780
Li      -0.01361805       3.98911526       6.51170054       11      -0.25340852      -0.09538457      -0.27933803       0.01527263      -0.00011047      -0.00638332
P        0.93478590       2.01662590       1.16362690       12      -0.18524858       0.16026404       0.08046533       0.10590664      -0.16393110       0.37686688
P        5.24982260       6.01367508      11.87918149       13       0.82355448       0.10445799       0.88978061       0.00086098      -0.17569499      -0.15781701
P        4.02448054       6.00432287       5.34561887       14      -0.22440371      -0.19242052      -0.78040824      -0.18609500       0.13103235      -0.08767205
P        2.16303612       2.01847106       7.67821466       15       0.38410144       0.34199902      -0.24722745      -0.35094672      -0.38263732       0.10766684
S        5.09497996       2.01584139       1.29567672       16      -0.18151325       0.56414243      -0.51848845      -0.45293736      -0.01896112       0.07095712
S        1.11961479       6.02964418      11.73188226       17       1.70910162       0.30324898       0.21465424      -0.08656309      -0.13218282       0.01232284
S        1.99007714       6.01494097       5.20923325       18      -0.29015958      -0.10930192       0.24753152      -0.03350141      -0.13370812      -0.01317629
S        4.17521435       1.99679102       7.83520222       19       0.52149347      -0.88319301       0.23269522       0.34324616       0.05090007       0.00453498
S        1.64966488       2.00295786      12.27475518       20      -0.97035779      -0.19306434       0.50545776       0.26046449      -0.01013190      -0.54717422
S        4.49134382       6.01244385       0.76857618       21      -0.30047205       0.02835676       0.02739951      -0.08454297      -0.00997714       0.24153592
S        4.77068757       6.00318819       7.28155496       22       0.46883825      -0.39779170       0.23289850       0.09170192      -0.02919962       0.17097147
S        1.40557177       2.01550992       5.74132943       23       0.32916434       0.76080452      -0.28682753      -0.06159257      -0.05142346      -0.13434057
S        1.68820641       0.30336966       2.00249945       24       0.14377599       0.34581195      -0.32956520       0.04904976      -0.14175791       0.06718598
S        4.48265660       7.71822826      11.04538678       25      -0.36068140      -0.17425801       0.74439274      -0.00197718       0.19336790      -0.14351702
S        4.73175053       7.73444801       4.50240865       26      -0.90339858       0.33732876       0.11550170       0.18735918       0.08094619      -0.03426112
S        1.41810093       0.28764296       8.52688632       27       0.09229257      -0.32877094      -0.05957301       0.00107663       0.04274870      -0.02004507
S        4.49022934       4.30300482      11.02702856       28      -0.46804024       0.44126748       0.13344235       0.10537013      -0.06001166      -0.04524749
S        1.67441112       3.72006710       2.01302889       29       0.38320081       0.10427667      -0.08570828       0.10804098       0.26463494       0.03406901
S        1.39347097       3.72181580       8.49980144       30      -0.79920736       0.56489424      -0.77803673      -0.04152855       0.22539337       0.16752180
S        4.77519022       4.29787428       4.50773398       31       0.39630312      -0.30064787      -0.24062898       0.04313231      -0.16610415      -0.07014920
32
Lattice="6.17176593 0.0 0.0 0.0 8.01859859 0.0 0.0 0.0 13.03281824" Properties=species:S:1:pos:R:3:spacegroup_kinds:I:1:momenta:R:3:forces:R:3 spacegroup="P 1" unit_cell=conventional occupancy="_JSON {\"0\": {\"Li\": 1}, \"1\": {\"Li\": 1}, \"2\": {\"Li\": 1}, \"3\": {\"Li\": 1}, \"4\": {\"Li\": 1}, \"5\": {\"Li\": 1}, \"6\": {\"Li\": 1}, \"7\": {\"Li\": 1}, \"8\": {\"Li\": 1}, \"9\": {\"Li\": 1}, \"10\": {\"Li\": 1}, \"11\": {\"Li\": 1}, \"12\": {\"P\": 1}, \"13\": {\"P\": 1}, \"14\": {\"P\": 1}, \"15\": {\"P\": 1}, \"16\": {\"S\": 1}, \"17\": {\"S\": 1}, \"18\": {\"S\": 1}, \"19\": {\"S\": 1}, \"20\": {\"S\": 1}, \"21\": {\"S\": 1}, \"22\": {\"S\": 1}, \"23\": {\"S\": 1}, \"24\": {\"S\": 1}, \"25\": {\"S\": 1}, \"26\": {\"S\": 1}, \"27\": {\"S\": 1}, \"28\": {\"S\": 1}, \"29\": {\"S\": 1}, \"30\": {\"S\": 1}, \"31\": {\"S\": 1}}" energy=-140.07040405273438 free_energy=-140.07040405273438 stress="-0.0022275166120380163 -0.0013154797488823533 0.0013441065093502402 -0.0013154797488823533 -0.004873214289546013 0.0014630785444751382 0.0013441065093502402 0.0014630785444751382 -0.007240313105285168" pbc="T T T"
Li       2.36801065       0.18583193       4.39485349        0      -0.30944065      -0.18018962       0.10332630      -0.09822786       0.30900401      -0.15814015
Li       3.83705553       7.72629857       8.80721803        1       0.01363606      -0.32253709       0.63068764      -0.10817972       0.03964933      -0.18373914
Li       5.42103532       7.73799318       2.17716924        2      -0.36570551       0.26318922       0.00387786       0.11665589       0.15944104       0.04278918
Li       0.60623587       0.17229142      10.94732116        3      -0.27492896       0.14136154       0.31657129       0.17892498       0.35420132      -0.25122815
Li       3.72379826       4.31573634       8.62120951        4      -0.20271800       0.26074402      -0.31893156       0.02338029      -0.14325806       0.14352134
Li       2.35917376       3.70708386       4.27471970        5      -0.01629455       0.29009552      -0.55751444       0.11402594       0.04169753       0.12767224
Li       0.79503657       3.75654922      10.86245794        6       0.27493781      -0.12694900      -0.21234253      -0.19899173       0.03673284      -0.12379799
Li       5.49883682       4.33719074       2.20843028        7       0.32089656       0.34834804      -0.08739321       0.02899602      -0.10666041      -0.10582791
Li       3.11494885       0.01493245      -0.09405132        8       0.12141566       0.02303808      -0.17616693      -0.25623924       0.06670075       0.43547776
Li      -0.02730059      -0.04064125       6.46730379        9      -0.21228548       0.08554700      -0.21055570       0.06490517       0.06955565       0.15387633
Li       3.08549717       3.97430966      -0.07249931       10       0.11703356      -0.11008351      -0.29458147      -0.00143836       0.00741827       0.19293267
Li      -0.04091259       3.97018368       6.47807400       11      -0.18326944      -0.19662042      -0.06255115       0.01286374      -0.01435817       0.09905887
P        0.93722939       2.00652992       1.15341921       12      -0.05598834      -0.32462830      -0.75543189      -0.18283276      -0.21819009       0.57123655
P        5.29749947       6.02270123      11.90934387       13       1.35675333      -0.14459892       0.46310901      -0.55711734      -0.40321267      -0.36116698
P        4.00578547       5.99891003       5.33095228       14      -0.46280761       0.29783882       0.38601786       0.57129985      -0.08044588       0.37131929
P        2.15690474       2.01514305       7.66867657       15      -0.97463375      -0.25613150      -0.13378378       0.07827219      -0.24128975       0.28755757
S        5.08256871       2.03850367       1.27776264       16      -0.96267256       0.67433326      -0.07077079      -0.19999936      -0.05045679       0.11428078
S        1.16642756       6.04503192      11.74323140       17       1.03693375      -0.04147390       0.41460413      -0.20555919      -0.19460048       0.03487919
S        2.00368140       6.02096317       5.19775639       18       0.62829745       0.07170290      -0.15488914      -0.50498140      -0.35753390       0.00373069
S        4.20715762       1.96170010       7.83768895       19       0.69865876      -1.00386544       0.18502356      -0.31749895       0.24587223      -0.00713670
S        1.62126199       1.99293118      12.26152398       20      -0.24068795      -0.31180972      -1.28131867       0.37000382      -0.03807438      -0.62252337
S        4.48959688       6.02872839       0.77187157       21       0.64620640       0.61631594       0.41022859       0.00250904      -0.08687018       0.33371705
S        4.78159061       5.98246078       7.30544955       22       0.10294331      -0.93748711       0.65752386      -0.06566865       0.07349031      -0.39528978
S        1.40266830       2.02926611       5.73974448       23      -0.11272341       0.12118789       0.13037359      -0.04018379      -0.12757243      -0.29596612
S        1.68841947       0.29593970       2.00233412       24       0.19047262      -0.04684348      -0.08576873      -0.03196624      -0.12740840      -0.01650787
S        4.47055864       7.74038432      11.10263463       25      -0.11828668       0.65215453       1.28982661       0.32441270      -0.02554713      -0.32559249
S        4.69947170       7.74902039       4.52593601       26      -0.37205551       0.16346385       0.65587998       0.27336204       0.05787907      -0.14488454
S        1.41198704       0.28141584       8.49631464       27      -0.17462010      -0.01702466      -1.14942296       0.02183864       0.03942616       0.12993085
S        4.47979073       4.31003458      11.04297877       28      -0.01556972       0.21567835       0.78716954       0.51557398       0.29020208      -0.08871576
S        1.69143303       3.69689758       2.01422292       29       0.07678384      -0.63848938       0.00257530       0.11103034       0.34675139      -0.13329664
S        1.35470367       3.73585147       8.47555051       30      -0.89923850       0.58903183      -0.49105719       0.21528369      -0.04494881       0.12766007
S        4.79699435       4.28430310       4.49117083       31       0.36895765      -0.15529876      -0.39431500      -0.25445360       0.12240562       0.04417339
32
Lattice="6.17176593 0.0 0.0 0.0 8.01859859 0.0 0.0 0.0 13.03281824" Properties=species:S:1:pos:R:3:spacegroup_kinds:I:1:momenta:R:3:forces:R:3 spacegroup="P 1" unit_cell=conventional occupancy="_JSON {\"0\": {\"Li\": 1}, \"1\": {\"Li\": 1}, \"2\": {\"Li\": 1}, \"3\": {\"Li\": 1}, \"4\": {\"Li\": 1}, \"5\": {\"Li\": 1}, \"6\": {\"Li\": 1}, \"7\": {\"Li\": 1}, \"8\": {\"Li\": 1}, \"9\": {\"Li\": 1}, \"10\": {\"Li\": 1}, \"11\": {\"Li\": 1}, \"12\": {\"P\": 1}, \"13\": {\"P\": 1}, \"14\": {\"P\": 1}, \"15\": {\"P\": 1}, \"16\": {\"S\": 1}, \"17\": {\"S\": 1}, \"18\": {\"S\": 1}, \"19\": {\"S\": 1}, \"20\": {\"S\": 1}, \"21\": {\"S\": 1}, \"22\": {\"S\": 1}, \"23\": {\"S\": 1}, \"24\": {\"S\": 1}, \"25\": {\"S\": 1}, \"26\": {\"S\": 1}, \"27\": {\"S\": 1}, \"28\": {\"S\": 1}, \"29\": {\"S\": 1}, \"30\": {\"S\": 1}, \"31\": {\"S\": 1}}" energy=-139.9088592529297 free_energy=-139.9088592529297 stress="-0.0008073109202086926 -0.0036130270455032587 0.0006122508202679455 -0.0036130270455032587 -0.003679717658087611 0.001942204893566668 0.0006122508202679455 0.001942204893566668 -0.006151535082608461" pbc="T T T"
Li       2.29933806       0.21550530       4.37662760        0      -0.62626833       0.42045134      -0.18853330       0.05373982       0.20701993      -0.12225358
Li       3.79609180       7.72803167       8.88474409        1      -0.25736397       0.00108311       0.21122962      -0.02115302       0.04617864      -0.28185925
Li       5.38113339       7.80949498       2.15709535        2      -0.12208929       0.40672372      -0.08403451       0.11270887       0.05525910       0.09516490
Li       0.58250421       0.24883366      10.99227671        3       0.13178865       0.68815619       0.21148207       0.19636703       0.02686067      -0.29653352
Li       3.66268383       4.37069720       8.61600948        4      -0.30023403       0.48498064       0.10057308       0.07296751      -0.29927009       0.14577261
Li       2.37755232       3.73344941       4.19696482        5      -0.05690417       0.05603516      -0.14799275       0.13916597       0.00985421       0.36288828
Li       0.80289571       3.72237378      10.83317501        6      -0.07918794      -0.12565554       0.07912254      -0.18767667       0.14952329      -0.08560456
Li       5.59760863       4.37825032       2.18316327        7       0.55884542       0.24505462      -0.06190293      -0.17943908      -0.07213667       0.00896205
Li       3.08002600       0.02682214      -0.12189715        8      -0.53844233       0.38917625       0.06784709      -0.23840566      -0.01054541       0.47748160
Li      -0.04491497      -0.00073761       6.48417862        9       0.08460836       0.65521231       0.30669929      -0.01416758       0.03819422       0.11683764
Li       3.13142529       3.97466371      -0.11982853       10       0.13610294       0.21406355      -0.08023339      -0.20081137      -0.02648570       0.47760278
Li      -0.07615748       3.88848518       6.49384858       11      -0.07337242      -0.45177221       0.12245724      -0.12052920       0.03453834       0.00592197
P        0.92236198       1.98177308       1.13840338       12      -0.79902660      -0.73892228      -0.05047942      -0.09519707       0.21311831       0.51729393
P        5.30861167       5.99492266      11.90915999       13      -0.02814540      -1.02375686      -0.18815575      -0.23788050       0.57212162       0.21105967
P        4.01573714       6.02015067       5.35675245       14       0.48844559       0.68291812       0.72033179       0.70172787      -0.60972273       0.07031025
P        2.11827872       2.00285928       7.66986417       15      -1.13523785      -0.70714186      -0.09355168       0.90097988       0.03695711       0.05976913
S        5.05811281       2.05443023       1.28327133       16      -0.30335596      -0.08293258      -0.17244113       0.06247555      -0.03474455       0.03164384
S        1.19172965       6.02729201      11.76865788       17       0.44703657      -0.89677226       1.02144624      -0.44822907      -0.10110860      -0.11470501
S        2.02493319       6.02681249       5.17180587       18       0.21403466       0.22776999      -1.31394328      -0.66410518      -0.32041842       0.08536586
S        4.22293600       1.93114023       7.83091140       19       0.15140626      -1.13862328      -0.79440678      -0.93259370       0.37043330       0.05161258
S        1.62000989       1.97636577      12.22256779       20       0.21915998      -0.30013069      -0.67525549       0.30662203       0.09548113      -0.16525942
S        4.50786585       6.04824187       0.79256249       21       0.73440387       0.47340704       1.02687298       0.03150315      -0.16266674       0.10967632
S        4.78835049       5.95361232       7.33020187       22       0.14889452      -0.66210980       0.76168095      -0.05879276       0.25281841      -0.43426758
S        1.39177876       2.03253658       5.73071955       23      -0.27098235      -0.17956206      -0.71606099      -0.02399773      -0.04295127      -0.24622971
S        1.68703645       0.28099181       1.98438626       24      -0.44761743      -0.56450252      -0.45801079      -0.10947885      -0.06645454      -0.05459263
S        4.48990170       7.77032835      11.14001340       25       0.95195882       0.68571816       0.77944113       0.40778852      -0.34273714      -0.34954175
S        4.70350240       7.75584525       4.54610854       26       0.34139464       0.19498266       0.31543272       0.26808801       0.20403545      -0.17397225
S        1.40864542       0.26946969       8.45961051       27       0.58888728      -0.47122314      -0.68693733      -0.14585711      -0.12072244       0.40685561
S        4.49626147       4.33187228      11.07844802       28       0.64413008       0.97841359       0.90701935       0.35912484      -0.25041786      -0.64774007
S        1.68314459       3.69847874       2.00956156       29      -0.26613442       0.11972820      -0.53199546       0.11150667      -0.07677219      -0.57973754
S        1.34377528       3.75485643       8.46725763       30      -0.28437084       0.45069410       0.16889700       0.22884285      -0.26201272       0.10467924
S        4.79473466       4.27176701       4.47946051       31      -0.25236424      -0.03146369      -0.55659810      -0.27529407       0.48677361       0.21339853
32
Lattice="6.17176593 0.0 0.0 0.0 8.01859859 0.0 0.0 0.0 13.03281824" Properties=species:S:1:pos:R:3:spacegroup_kinds:I:1:momenta:R:3:forces:R:3 spacegroup="P 1" unit_cell=conventional occupancy="_JSON {\"0\": {\"Li\": 1}, \"1\": {\"Li\": 1}, \"2\": {\"Li\": 1}, \"3\": {\"Li\": 1}, \"4\": {\"Li\": 1}, \"5\": {\"Li\": 1}, \"6\": {\"Li\": 1}, \"7\": {\"Li\": 1}, \"8\": {\"Li\": 1}, \"9\": {\"Li\": 1}, \"10\": {\"Li\": 1}, \"11\": {\"Li\": 1}, \"12\": {\"P\": 1}, \"13\": {\"P\": 1}, \"14\": {\"P\": 1}, \"15\": {\"P\": 1}, \"16\": {\"S\": 1}, \"17\": {\"S\": 1}, \"18\": {\"S\": 1}, \"19\": {\"S\": 1}, \"20\": {\"S\": 1}, \"21\": {\"S\": 1}, \"22\": {\"S\": 1}, \"23\": {\"S\": 1}, \"24\": {\"S\": 1}, \"25\": {\"S\": 1}, \"26\": {\"S\": 1}, \"27\": {\"S\": 1}, \"28\": {\"S\": 1}, \"29\": {\"S\": 1}, \"30\": {\"S\": 1}, \"31\": {\"S\": 1}}" energy=-139.76437377929688 free_energy=-139.76437377929688 stress="-0.0018006458412855864 -0.005186376627534628 -0.0007622175617143512 -0.005186376627534628 -0.007097870577126741 0.001107652671635151 -0.0007622175617143512 0.001107652671635151 -0.004053488373756409" pbc="T T T"
Li       2.22869016       0.28042036       4.35364707        0       0.11348436       0.60507514      -0.30675763       0.22813848      -0.08319163      -0.11151037
Li       3.73825160       7.73658705       8.88317730        1      -0.32260252       0.22901179      -0.01596291       0.17720284      -0.00652563      -0.12608349
Li       5.34004637       7.85956878       2.11270938        2      -0.32154380       0.07308569      -0.15391794       0.14220896      -0.05734199       0.24699239
Li       0.66515084       0.34831154      11.00800412        3       0.58540504       0.40248729       0.02821099      -0.14584497      -0.53219271      -0.47872683
Li       3.62135075       4.43251399       8.68252452        4      -0.25089149       0.06779718       0.33507168       0.09135956      -0.33628634       0.06727859
Li       2.39236276       3.73297557       4.20328684        5      -0.01341740      -0.06967202       0.36520637       0.07131456       0.09400913       0.24244486
Li       0.76661140       3.68914975      10.86279581        6      -0.26861552      -0.01140508       0.15905134      -0.09847376       0.25361246      -0.12675723
Li       5.65936027       4.41224846       2.16984090        7      -0.02693196      -0.12688554      -0.07327269      -0.28497732      -0.05336932       0.07433771
Li       2.95788465       0.06015254      -0.03774134        8      -0.81531748       0.03658830       0.55567782       0.22838089      -0.23560688      -0.07027423
Li      -0.02977521       0.13043742       6.54422204        9      -0.21091798       0.70511908       0.34422909      -0.22988656      -0.14639273      -0.04617267
Li       3.15980528       4.02396099      -0.04677613       10       0.09626162       0.22594081       0.72698685      -0.19144052      -0.01059873       0.32398871
Li      -0.14186978       3.80133738       6.50958455       11      -0.56360101      -0.52861100       0.12854556      -0.18661511       0.10043439       0.01500807
P        0.88929632       1.95524633       1.13256877       12      -0.85367796      -0.26703262      -0.18817425       0.34575620       0.45686817       0.21752200
P        5.30173264       5.97170762      11.90487197       13      -0.55101007       0.56212655      -0.02004886       0.52308750       1.73875380       0.90984106
P        4.04207631       6.03062069       5.37398887       14       1.02083923      -0.19508882      -0.04996787      -0.03918917      -0.46187237      -0.16603369
P        2.08581146       1.99863163       7.65427089       15       0.08724137       0.41940893      -0.63798138       1.13321233       0.37736571       0.04985179
S        5.05031221       2.04568096       1.27648897       16       0.18766276      -0.47279269       0.05168339      -0.23658359       0.11153795       0.04616168
S        1.19951463       5.98503419      11.80097071       17       0.08117827      -0.97021711       1.12074318      -0.45809844       0.00026421      -0.18540022
S        2.01558604       6.04770062       5.13924137       18      -0.55361058       0.17193824      -0.69757676      -0.05020052      -0.26401195       0.18555471