32
Lattice="6.17176593 0.0 0.0 0.0 8.01859859 0.0 0.0 0.0 13.03281824" Properties=species:S:1:pos:R:3:spacegroup_kinds:I:1:forces:R:3 spacegroup="P 1" unit_cell=conventional occupancy="_JSON {\"0\": {\"Li\": 1}, \"1\": {\"Li\": 1}, \"2\": {\"Li\": 1}, \"3\": {\"Li\": 1}, \"4\": {\"Li\": 1}, \"5\": {\"Li\": 1}, \"6\": {\"Li\": 1}, \"7\": {\"Li\": 1}, \"8\": {\"Li\": 1}, \"9\": {\"Li\": 1}, \"10\": {\"Li\": 1}, \"11\": {\"Li\": 1}, \"12\": {\"P\": 1}, \"13\": {\"P\": 1}, \"14\": {\"P\": 1}, \"15\": {\"P\": 1}, \"16\": {\"S\": 1}, \"17\": {\"S\": 1}, \"18\": {\"S\": 1}, \"19\": {\"S\": 1}, \"20\": {\"S\": 1}, \"21\": {\"S\": 1}, \"22\": {\"S\": 1}, \"23\": {\"S\": 1}, \"24\": {\"S\": 1}, \"25\": {\"S\": 1}, \"26\": {\"S\": 1}, \"27\": {\"S\": 1}, \"28\": {\"S\": 1}, \"29\": {\"S\": 1}, \"30\": {\"S\": 1}, \"31\": {\"S\": 1}}" energy=-140.31869506835938 free_energy=-140.31869506835938 stress="-0.007170618046075106 -5.032710692631781e-09 -2.235243545811727e-09 -5.032710692631781e-09 -0.00825938954949379 -3.6008054316027938e-09 -2.235243545811727e-09 -3.6008054316027938e-09 -0.0052663106471300125" pbc="T T T"
Li       2.40329652       0.26860172       4.33400832        0      -0.02603509       0.00549076      -0.00432158
Li       3.76846941       7.74999687       8.69880992        1       0.02603729      -0.00549118       0.00432327
Li       5.48917948       7.74999687       2.18240080        2      -0.02603537      -0.00549057       0.00432285
Li       0.68258645       0.26860172      10.85041744        3       0.02603580       0.00549229      -0.00431981
Li       3.76846941       4.27790102       8.69880992        4       0.02603616       0.00549106       0.00432292
Li       2.40329652       3.74069757       4.33400832        5      -0.02603567      -0.00549072      -0.00432173
Li       0.68258645       3.74069757      10.85041744        6       0.02603597      -0.00549231      -0.00431967
Li       5.48917948       4.27790102       2.18240080        7      -0.02603630       0.00549087       0.00432270
Li       3.08588297       0.00000000       0.00000000        8      -0.00000063      -0.00000085      -0.00000173
Li       0.00000000       0.00000000       6.51640912        9       0.00000115      -0.00000024      -0.00000085
Li       3.08588297       4.00929929       0.00000000       10      -0.00000053       0.00000116       0.00000008
Li       0.00000000       4.00929929       6.51640912       11      -0.00000005       0.00000086       0.00000075
P        0.94051010       2.00464965       1.16601784       12      -0.02067180      -0.00000127       0.02375985
P        5.23125583       6.01394894      11.86680040       13       0.02066625       0.00000043      -0.02375957
P        4.02639307       6.01394894       5.35039128       14      -0.02066726       0.00000121      -0.02375588
P        2.14537286       2.00464965       7.68242696       15       0.02066900      -0.00000041       0.02375835
S        5.08970823       2.00464965       1.30575389       16      -0.25450596      -0.00000005       0.01679049
S        1.08205770       6.01394894      11.72706435       17       0.25450718       0.00000050      -0.01679210
S        2.00382526       6.01394894       5.21065523       18      -0.25450543      -0.00000110      -0.01679181
S        4.16794067       2.00464965       7.82216301       19       0.25450045      -0.00000010       0.01678982
S        1.68132889       2.00464965      12.25955363       20       0.10912253      -0.00000000      -0.16719580
S        4.49043704       6.01394894       0.77326461       21      -0.10912069      -0.00000003       0.16718143
S        4.76721186       6.01394894       7.28967373       22       0.10912059       0.00000023       0.16717896
S        1.40455407       2.00464965       5.74314451       23      -0.10911980       0.00000043      -0.16718116
S        1.67233151       0.29287049       2.00524453       24       0.13957787      -0.21272591       0.08709925
S        4.49943442       7.72572810      11.02757371       25      -0.13957594       0.21272454      -0.08709170
S        4.75821447       7.72572810       4.51116459       26       0.13957474       0.21272416      -0.08709113
S        1.41355146       0.29287049       8.52165365       27      -0.13957560      -0.21272068       0.08709152
S        4.49943442       4.30216979      11.02757371       28      -0.13957730      -0.21272559      -0.08709354
S        1.67233151       3.71642880       2.00524453       29       0.13957854       0.21272644       0.08709904
S        1.41355146       3.71642880       8.52165365       30      -0.13957666       0.21272132       0.08709008
S        4.75821447       4.30216979       4.51116459       31       0.13957657      -0.21272530      -0.08709311
