13
Lattice="7.26870274 0.0 0.0 3.634351370000001 6.294881225397555 0.0 3.634351370000001 2.0982937417991856 5.934870934989993" Properties=species:S:1:pos:R:3:spacegroup_kinds:I:1:momenta:R:3:forces:R:3 spacegroup="P 1" unit_cell=conventional occupancy="_JSON {\"0\": {\"Li\": 1}, \"1\": {\"Li\": 1}, \"2\": {\"Li\": 1}, \"3\": {\"Li\": 1}, \"4\": {\"Li\": 1}, \"5\": {\"Li\": 1}, \"6\": {\"P\": 1}, \"7\": {\"S\": 1}, \"8\": {\"S\": 1}, \"9\": {\"S\": 1}, \"10\": {\"S\": 1}, \"11\": {\"S\": 1}, \"12\": {\"Cl\": 1}}" energy=-53.29755401611328 free_energy=-53.29755401611328 stress="-0.00557547714561224 -0.0001480847568018362 -0.0018536844290792942 -0.0001480847568018362 -0.0028660043608397245 6.636159378103912e-05 -0.0018536844290792942 6.636159378103912e-05 -0.002364320447668433" pbc="T T T"
Li       9.23474354       7.26115642       3.23297710        0       0.13336195       0.25093800       0.40703485      -0.08901770       0.05895446      -0.02813306
Li      12.50584764       5.23688694       5.74081156        1      -0.14522359      -0.39252698      -0.00823926       0.09405833      -0.14500469       0.25012720
Li       9.22631163       5.39034165       5.81432098        2      -0.08762727       0.09159247       0.14549170       0.00357232       0.01164160       0.03565127
Li      12.54517181       7.29531266       3.10912793        3      -0.12290339      -0.05605088       0.30058950       0.04827768      -0.22718263       0.06515914
Li      10.89967965       4.43459261       2.98370379        4       0.13891225       0.22861932      -0.30261698      -0.08852766       0.08212249      -0.03230536
Li      10.93594665       8.21341433       5.69452291        5       0.07415963       0.50685290      -0.21337609       0.05647383       0.06488209       0.33158237
P        7.26058524       4.22485824       2.96218144        6      -0.51713340       0.02330238       0.01356312       0.23616955       0.12166710      -0.14165947
S        7.28747869       6.15821694       2.26312112        7       0.04813119       0.21234239      -0.35604180      -0.03004987      -0.02896345      -0.01526739
S        8.87806379       3.18499090       2.25986368        8      -0.38712387      -0.53046018      -0.20153864       0.44247609       0.25429291      -0.09632625
S        5.62162536       3.22894859       2.31081506        9       0.14983615       0.44755108       0.53364431      -0.61547774      -0.20776948      -0.19333217
S        7.27011256       4.19522665       5.00459787       10       0.09062270      -0.33051647      -0.19064572       0.09530934       0.15850320       0.26448414
S       10.94153623       6.27883249       4.49530920       11       0.31511890      -0.92440874       0.00724756      -0.25228012      -0.07662816      -0.42278892
Cl       0.00229848      -0.00502368       0.01808168       12       0.30986875       0.47276470      -0.13511255       0.09901600      -0.06651548      -0.01719150
