13
Lattice="7.26870274 0.0 0.0 3.634351370000001 6.294881225397555 0.0 3.634351370000001 2.0982937417991856 5.934870934989993" Properties=species:S:1:pos:R:3:spacegroup_kinds:I:1:momenta:R:3:forces:R:3 spacegroup="P 1" unit_cell=conventional occupancy="_JSON {\"0\": {\"Li\": 1}, \"1\": {\"Li\": 1}, \"2\": {\"Li\": 1}, \"3\": {\"Li\": 1}, \"4\": {\"Li\": 1}, \"5\": {\"Li\": 1}, \"6\": {\"P\": 1}, \"7\": {\"S\": 1}, \"8\": {\"S\": 1}, \"9\": {\"S\": 1}, \"10\": {\"S\": 1}, \"11\": {\"S\": 1}, \"12\": {\"Cl\": 1}}" energy=-53.3634147644043 free_energy=-53.3634147644043 stress="-0.0007942012161947787 -2.394490934420901e-07 -1.7459939272157499e-07 -2.394490934420901e-07 -0.0007939324714243412 -1.0959594476389611e-07 -1.7459939272157499e-07 -1.0959594476389611e-07 -0.0007939130300655961" pbc="T T T"
Li       9.25387995       7.24703237       3.10460814        0       0.00000000       0.00000000       0.00000000       0.00422604      -0.00243475       0.00344849
Li      12.55222827       5.34273008       5.79769826        1       0.00000000       0.00000000       0.00000000      -0.00421103       0.00243307      -0.00344119
Li       9.25387995       5.34273008       5.79769826        2       0.00000000       0.00000000       0.00000000       0.00422433       0.00243874      -0.00344655
Li      12.55222827       7.24703237       3.10460814        3       0.00000000       0.00000000       0.00000000      -0.00421192      -0.00243067       0.00344074
Li      10.90305411       4.39057894       3.10460814        4       0.00000000       0.00000000       0.00000000       0.00000254       0.00487611       0.00344825
Li      10.90305411       8.19918351       5.79769826        5       0.00000000       0.00000000       0.00000000       0.00000152      -0.00486340      -0.00344137
P        7.26870274       4.19658748       2.96743547        6       0.00000000       0.00000000       0.00000000       0.00008545       0.00004603       0.00003572
S        7.26870637       6.13578650       2.28182731        7       0.00000000       0.00000000       0.00000000      -0.00001802      -0.01090944       0.00384737
S        8.94810016       3.22699113       2.28182731        8       0.00000000       0.00000000       0.00000000      -0.00945801       0.00544044       0.00384702
S        5.58931258       3.22699113       2.28182731        9       0.00000000       0.00000000       0.00000000       0.00937822       0.00541317       0.00383056
S        7.26870637       4.19658958       5.02426588       10       0.00000000       0.00000000       0.00000000      -0.00001908      -0.00000963      -0.01156960
S       10.90305411       6.29488123       4.45115320       11       0.00000000       0.00000000       0.00000000      -0.00000197      -0.00000098       0.00000006
Cl       0.00000000       0.00000000       0.00000000       12       0.00000000       0.00000000       0.00000000       0.00000195       0.00000131       0.00000056
13
Lattice="7.26870274 0.0 0.0 3.634351370000001 6.294881225397555 0.0 3.634351370000001 2.0982937417991856 5.934870934989993" Properties=species:S:1:pos:R:3:spacegroup_kinds:I:1:momenta:R:3:forces:R:3 spacegroup="P 1" unit_cell=conventional occupancy="_JSON {\"0\": {\"Li\": 1}, \"1\": {\"Li\": 1}, \"2\": {\"Li\": 1}, \"3\": {\"Li\": 1}, \"4\": {\"Li\": 1}, \"5\": {\"Li\": 1}, \"6\": {\"P\": 1}, \"7\": {\"S\": 1}, \"8\": {\"S\": 1}, \"9\": {\"S\": 1}, \"10\": {\"S\": 1}, \"11\": {\"S\": 1}, \"12\": {\"Cl\": 1}}" energy=-53.36329650878906 free_energy=-53.36329650878906 stress="-0.0007504350505769253 8.238018199335784e-05 -1.0629638381942641e-05 8.238018199335784e-05 -0.0006783941644243896 -4.0603434172226116e-05 -1.0629638381942641e-05 -4.0603434172226116e-05 -0.0009721773094497621" pbc="T T T"
Li       9.25506619       7.24569658       3.10530691        0       0.07771830      -0.08041888       0.07230247       0.00189036       0.00161095       0.00044928
Li      12.55253252       5.34214184       5.79940300        1       0.02029818       0.00176525       0.02571847      -0.00952669       0.00554974      -0.00847487
Li       9.25377128       5.34148649       5.79810955        2       0.02416705       0.00979227       0.03319001       0.00887766       0.00384921      -0.00718611
Li      12.55415587       7.24865381       3.10242737        3       0.03601966       0.06486524      -0.10755372      -0.01363307      -0.00991486       0.01256069
Li      10.90494982       4.38965096       3.10559544        4       0.09678129       0.00177389      -0.03603270      -0.00440688       0.00299994       0.00356212
Li      10.90197671       8.19613897       5.79926426        5      -0.06176857      -0.15483542       0.05881341      -0.00028042       0.00650647      -0.00780952
P        7.26836395       4.19720235       2.96859154        6      -0.08520735       0.10029606       0.25524205      -0.00753765      -0.00579763      -0.03122782
S        7.26883013       6.13651160       2.28158271        7       0.07634288       0.06451591       0.03596453       0.00382383      -0.01986046       0.00811353
S        8.94703470       3.22645644       2.28206657        8      -0.28057567      -0.15122927       0.04867246      -0.00344101       0.01815884       0.00818573
S        5.58953130       3.22609265       2.28147749        9      -0.02207386      -0.12857348      -0.02491376       0.01506853       0.01104148       0.00851015
S        7.26742684       4.19728644       5.02361626       10      -0.29455068       0.06127737      -0.22276985       0.00456654      -0.00813494       0.01257350
S       10.90418484       6.29508100       4.45089126       11       0.28793593       0.04909469      -0.06993190       0.00317798      -0.00720792       0.00102728
Cl       0.00022606       0.00037709      -0.00057879       12       0.12491285       0.16167638      -0.06870147       0.00142090       0.00119917      -0.00028398
13
Lattice="7.26870274 0.0 0.0 3.634351370000001 6.294881225397555 0.0 3.634351370000001 2.0982937417991856 5.934870934989993" Properties=species:S:1:pos:R:3:spacegroup_kinds:I:1:momenta:R:3:forces:R:3 spacegroup="P 1" unit_cell=conventional occupancy="_JSON {\"0\": {\"Li\": 1}, \"1\": {\"Li\": 1}, \"2\": {\"Li\": 1}, \"3\": {\"Li\": 1}, \"4\": {\"Li\": 1}, \"5\": {\"Li\": 1}, \"6\": {\"P\": 1}, \"7\": {\"S\": 1}, \"8\": {\"S\": 1}, \"9\": {\"S\": 1}, \"10\": {\"S\": 1}, \"11\": {\"S\": 1}, \"12\": {\"Cl\": 1}}" energy=-53.36269760131836 free_energy=-53.36269760131836 stress="-0.0007954179309308529 0.00018435819947626442 -4.764366167364642e-05 0.00018435819947626442 -0.0006330574979074299 -0.00011027968139387667 -4.764366167364642e-05 -0.00011027968139387667 -0.0014294678112491965" pbc="T T T"
Li       9.25655342       7.24433373       3.10855794        0       0.00430547       0.05094051       0.06540996      -0.00582663       0.01326619      -0.00719081
Li      12.55182009       5.34052782       5.79902535        1      -0.03283173      -0.02517800      -0.01279672      -0.01017901       0.00466643      -0.00436383
Li       9.25428431       5.34064126       5.79785944        2       0.01883044       0.03871261      -0.04424503       0.00611348       0.00048515      -0.00436420
Li      12.55580666       7.24967469       3.10000834        3       0.07091626       0.07798281       0.00175123      -0.02062623      -0.01687288       0.01951312
Li      10.90599395       4.39268068       3.10347429        4      -0.00706959       0.10509853      -0.08290742      -0.00849217      -0.00491435      -0.00424621
Li      10.89985540       8.18977713       5.79891851        5      -0.02576299      -0.17536678      -0.07297930      -0.00106503       0.03700957       0.00447544
P        7.26846513       4.19793658       2.97055690        6       0.01127719       0.14652476       0.20247026      -0.02402090      -0.01021833      -0.10291424
S        7.26999813       6.13735688       2.28217107        7       0.25657251       0.12108969       0.06750044       0.00802830      -0.02505819       0.00497173
S        8.94466122       3.22507961       2.28139844        8      -0.38077947      -0.27737568      -0.27701753       0.01602951       0.03103442       0.01235049
S        5.59008185       3.22627375       2.28100536        9       0.11504844      -0.03495395      -0.02380118       0.01256768       0.01149752       0.01283686
S        7.26530353       4.19762890       5.02098789       10      -0.27558183       0.03755575      -0.31345814       0.01645122      -0.02004167       0.08120771
S       10.90553616       6.29554955       4.45225782       11       0.11187222      -0.06686248       0.30871619       0.00577840      -0.02123500      -0.01376708
Cl       0.00115037       0.00052684      -0.00023245       12       0.13320309       0.00183222       0.18135725       0.00524143       0.00038113       0.00149093
13
Lattice="7.26870274 0.0 0.0 3.634351370000001 6.294881225397555 0.0 3.634351370000001 2.0982937417991856 5.934870934989993" Properties=species:S:1:pos:R:3:spacegroup_kinds:I:1:momenta:R:3:forces:R:3 spacegroup="P 1" unit_cell=conventional occupancy="_JSON {\"0\": {\"Li\": 1}, \"1\": {\"Li\": 1}, \"2\": {\"Li\": 1}, \"3\": {\"Li\": 1}, \"4\": {\"Li\": 1}, \"5\": {\"Li\": 1}, \"6\": {\"P\": 1}, \"7\": {\"S\": 1}, \"8\": {\"S\": 1}, \"9\": {\"S\": 1}, \"10\": {\"S\": 1}, \"11\": {\"S\": 1}, \"12\": {\"Cl\": 1}}" energy=-53.36149597167969 free_energy=-53.36149597167969 stress="-0.0007011574925854802 0.00018425424059387296 -0.00010886414384003729 0.00018425424059387296 -0.0007304665050469339 -7.042080687824637e-05 -0.00010886414384003729 -7.042080687824637e-05 -0.0018788345623761415" pbc="T T T"
Li       9.25253856       7.24498265       3.11243495        0      -0.17183988       0.02765720       0.17626448       0.00732180       0.02192763      -0.00076901
Li      12.55025802       5.33990059       5.79853754        1      -0.02363322      -0.04299602       0.00239645      -0.00441477      -0.00034147      -0.00231707
Li       9.25486141       5.34202311       5.79847561        2       0.06122801       0.10995378       0.06649892      -0.00142373      -0.00419629       0.00092107
Li      12.55860632       7.24974158       3.10162099        3       0.08029522       0.00832114       0.07014082      -0.02614094      -0.01716268       0.02251479
Li      10.90424177       4.39653078       3.10061529        4      -0.05299883       0.10988755      -0.06116987      -0.00992580      -0.01835837      -0.01889522
Li      10.89754970       8.18521981       5.79457835        5      -0.11043672      -0.10749147      -0.20103228      -0.00245953       0.06119974       0.02669149
P        7.26875139       4.20065115       2.97205904        6       0.09145842       0.43293659       0.06797855      -0.02998653      -0.06429311      -0.17179784
S        7.27288610       6.13830941       2.28333464        7       0.40773530       0.12899766       0.02548021      -0.00215650      -0.00986516      -0.01879549
S        8.94143134       3.22242847       2.27824337        8      -0.46206315      -0.33997619      -0.40944623       0.02486678       0.05160554       0.03126539
S        5.59062649       3.22675205       2.28100775        9       0.08048239       0.03766357       0.06646620       0.01027368       0.02647616       0.02020122
S        7.26475254       4.19772779       5.01817958       10       0.06994983       0.01929783      -0.37012882       0.02383766      -0.02134884       0.14685455
S       10.90590791       6.29436958       4.45348530       11      -0.05680486      -0.17944049       0.06150897       0.00129549      -0.02085663      -0.03398833
Cl       0.00219432      -0.00002685       0.00182366       12       0.08662750      -0.20481116       0.50504259       0.00891250      -0.00478648      -0.00188553
13
Lattice="7.26870274 0.0 0.0 3.634351370000001 6.294881225397555 0.0 3.634351370000001 2.0982937417991856 5.934870934989993" Properties=species:S:1:pos:R:3:spacegroup_kinds:I:1:momenta:R:3:forces:R:3 spacegroup="P 1" unit_cell=conventional occupancy="_JSON {\"0\": {\"Li\": 1}, \"1\": {\"Li\": 1}, \"2\": {\"Li\": 1}, \"3\": {\"Li\": 1}, \"4\": {\"Li\": 1}, \"5\": {\"Li\": 1}, \"6\": {\"P\": 1}, \"7\": {\"S\": 1}, \"8\": {\"S\": 1}, \"9\": {\"S\": 1}, \"10\": {\"S\": 1}, \"11\": {\"S\": 1}, \"12\": {\"Cl\": 1}}" energy=-53.35911560058594 free_energy=-53.35911560058594 stress="-0.0005942409043200314 0.00018457218538969755 -0.00010013662540586665 0.00018457218538969755 -0.0010056610917672515 2.8880533136543818e-05 -0.00010013662540586665 2.8880533136543818e-05 -0.002341295126825571" pbc="T T T"
Li       9.24631852       7.24524379       3.11603653        0      -0.17503170      -0.05258599       0.05690614       0.02940922       0.03016510       0.00972607
Li      12.55059286       5.33661600       5.79910136        1       0.00981629      -0.15150376       0.03307520      -0.00910375       0.00224253      -0.00952244
Li       9.25654087       5.34619366       5.80023946        2       0.04628148       0.10204902      -0.00276068      -0.01647573      -0.01170466       0.00631543
Li      12.56031706       7.25402546       3.10318255        3       0.09191733       0.22159012       0.00133987      -0.03137600      -0.03396163       0.03132529
Li      10.90333262       4.40117463       3.09736414        4       0.02511233       0.08135351      -0.11356385      -0.01260366      -0.03143527      -0.03666579
Li      10.89346452       8.18175789       5.78900157        5      -0.08929494      -0.12178320      -0.16361908      -0.00345127       0.08587970       0.04865032
P        7.26994602       4.20448132       2.97187687        6       0.26350952       0.59383380      -0.02855745      -0.05775316      -0.14066868      -0.21180785
S        7.27580134       6.13896365       2.28416024        7       0.34708232       0.04233753       0.09462472      -0.01870699       0.02582338      -0.05530543
S        8.93760241       3.21884934       2.27531555        8      -0.45048459      -0.47842642      -0.33989236       0.04966643       0.08038348       0.04219228
S        5.59150611       3.22660107       2.28158748        9       0.08980513      -0.09095038       0.14109604       0.01151542       0.04704001       0.02584746
S        7.26505862       4.19910355       5.01441544       10      -0.10692292       0.26179514      -0.56568825       0.03829138      -0.02452402       0.20769933
S       10.90595610       6.29323825       4.45465141       11       0.02493491      -0.08901644       0.36057963       0.00484582      -0.01863632      -0.05286149
Cl       0.00229957      -0.00209379       0.00589083       12      -0.07672514      -0.31869292       0.52646008       0.01574230      -0.01060366      -0.00559320
13
Lattice="7.26870274 0.0 0.0 3.634351370000001 6.294881225397555 0.0 3.634351370000001 2.0982937417991856 5.934870934989993" Properties=species:S:1:pos:R:3:spacegroup_kinds:I:1:momenta:R:3:forces:R:3 spacegroup="P 1" unit_cell=conventional occupancy="_JSON {\"0\": {\"Li\": 1}, \"1\": {\"Li\": 1}, \"2\": {\"Li\": 1}, \"3\": {\"Li\": 1}, \"4\": {\"Li\": 1}, \"5\": {\"Li\": 1}, \"6\": {\"P\": 1}, \"7\": {\"S\": 1}, \"8\": {\"S\": 1}, \"9\": {\"S\": 1}, \"10\": {\"S\": 1}, \"11\": {\"S\": 1}, \"12\": {\"Cl\": 1}}" energy=-53.35400390625 free_energy=-53.35400390625 stress="-0.00066086818696931 0.0002762593503575772 -7.172055484261364e-05 0.0002762593503575772 -0.001420023269020021 9.627280087443069e-05 -7.172055484261364e-05 9.627280087443069e-05 -0.002825790783390403" pbc="T T T"
Li       9.24049091       7.24285959       3.11852088        0      -0.18200834      -0.04588354       0.03436147       0.05831586       0.04506925       0.02128611
Li      12.55188094       5.32949031       5.79915621        1      -0.02382690      -0.24568648      -0.08187176      -0.02343643       0.00845374      -0.01737505
Li       9.25812885       5.34890719       5.79920686        2       0.00036139       0.06667808      -0.04984571      -0.03448991      -0.02214277       0.02633696
Li      12.56445688       7.25977946       3.10205829        3       0.12447718       0.17925990      -0.11405108      -0.05288706      -0.06094451       0.05466367
Li      10.90321047       4.40286032       3.09043811        4      -0.01361406       0.04168296      -0.29779143      -0.01513665      -0.02185103      -0.03859449
Li      10.89117518       8.17496617       5.78288967        5      -0.04388269      -0.18917629      -0.23658021      -0.00304626       0.12943526       0.07590943
P        7.27184596       4.20974310       2.97110906        6       0.18223476       0.55655993      -0.16503076      -0.11213899      -0.24338792      -0.24159920
S        7.27869801       6.13968708       2.28512562        7       0.35559298       0.08412575       0.12964305      -0.03080090       0.07936811      -0.10595313
S        8.93317908       3.21565142       2.27291148        8      -0.76519957      -0.34436719      -0.27905426       0.08529660       0.10854197       0.04114547
S        5.59236251       3.22657534       2.28383686        9       0.20270147      -0.03006531       0.50447429       0.02207298       0.06372777       0.01411591
S        7.26417092       4.20082683       5.00962052       10       0.05093041       0.11455023      -0.54709294       0.06442886      -0.03436940       0.28049064
S       10.90623926       6.29239545       4.45802790       11       0.05825852      -0.07868747       0.55159104       0.02006411      -0.03698991      -0.10326289
Cl       0.00211509      -0.00398747       0.00946330       12       0.05397489      -0.10899057       0.55124830       0.02175783      -0.01491048      -0.00716346
13
Lattice="7.26870274 0.0 0.0 3.634351370000001 6.294881225397555 0.0 3.634351370000001 2.0982937417991856 5.934870934989993" Properties=species:S:1:pos:R:3:spacegroup_kinds:I:1:momenta:R:3:forces:R:3 spacegroup="P 1" unit_cell=conventional occupancy="_JSON {\"0\": {\"Li\": 1}, \"1\": {\"Li\": 1}, \"2\": {\"Li\": 1}, \"3\": {\"Li\": 1}, \"4\": {\"Li\": 1}, \"5\": {\"Li\": 1}, \"6\": {\"P\": 1}, \"7\": {\"S\": 1}, \"8\": {\"S\": 1}, \"9\": {\"S\": 1}, \"10\": {\"S\": 1}, \"11\": {\"S\": 1}, \"12\": {\"Cl\": 1}}" energy=-53.347171783447266 free_energy=-53.347171783447266 stress="-0.0010064244270324707 0.00045987352496013045 -7.113856554497033e-05 0.00045987352496013045 -0.0018596702720969915 9.913268149830401e-05 -7.113856554497033e-05 9.913268149830401e-05 -0.0029673040844500065" pbc="T T T"
Li       9.23442504       7.23989494       3.12214598        0      -0.16087774      -0.05466709       0.13915546       0.08717712       0.06217149       0.03272342
Li      12.55040439       5.32251323       5.79516392        1      -0.02971533      -0.24036565      -0.17098711      -0.02421449       0.00440567      -0.00746761
Li       9.25728316       5.35076071       5.79726106        2      -0.04109954       0.06536476      -0.12088728      -0.04298232      -0.02707125       0.04564378
Li      12.56992606       7.26538664       3.09774150        3       0.19176692       0.17741323      -0.13918753      -0.08525994      -0.09169636       0.08368304
Li      10.90301340       4.40423380       3.07781035        4       0.03408640       0.04918239      -0.37571401      -0.01837991       0.00239545      -0.03280896
Li      10.88878587       8.16837747       5.77488897        5      -0.09746700      -0.17979126      -0.22248332      -0.00359440       0.17470138       0.10978915
P        7.27360702       4.21503323       2.96991016        6       0.30395518       0.58298646      -0.14114050      -0.17864081      -0.32776356      -0.23015079
S        7.28082766       6.14134679       2.28556104        7       0.10366072       0.29516055      -0.03344064      -0.03589756       0.11650015      -0.15201946
S        8.92660341       3.21228186       2.27170877        8      -0.91484242      -0.36716155      -0.10972332       0.14468640       0.13180496       0.01457321
S        5.59384994       3.22623707       2.28631292        9       0.22442489      -0.11076289       0.16478892       0.02375665       0.07649820      -0.00146000
S        7.26400495       4.20095551       5.00680948       10      -0.10184150      -0.04929367      -0.17373575       0.07896347      -0.03292408       0.31574377
S       10.90728702       6.29216719       4.46159314       11       0.17853700       0.02750371       0.47706682       0.02483203      -0.06768917      -0.17202637
Cl       0.00357717      -0.00524294       0.01369473       12       0.30941245      -0.19556899       0.70628826       0.02955384      -0.02133287      -0.00622319
13
Lattice="7.26870274 0.0 0.0 3.634351370000001 6.294881225397555 0.0 3.634351370000001 2.0982937417991856 5.934870934989993" Properties=species:S:1:pos:R:3:spacegroup_kinds:I:1:momenta:R:3:forces:R:3 spacegroup="P 1" unit_cell=conventional occupancy="_JSON {\"0\": {\"Li\": 1}, \"1\": {\"Li\": 1}, \"2\": {\"Li\": 1}, \"3\": {\"Li\": 1}, \"4\": {\"Li\": 1}, \"5\": {\"Li\": 1}, \"6\": {\"P\": 1}, \"7\": {\"S\": 1}, \"8\": {\"S\": 1}, \"9\": {\"S\": 1}, \"10\": {\"S\": 1}, \"11\": {\"S\": 1}, \"12\": {\"Cl\": 1}}" energy=-53.33810806274414 free_energy=-53.33810806274414 stress="-0.0014923257986083627 0.0006588881951756775 -6.861462316010147e-05 0.0006588881951756775 -0.002268570475280285 1.8291661035618745e-05 -6.861462316010147e-05 1.8291661035618745e-05 -0.002933304524049163" pbc="T T T"
Li       9.22703305       7.23945861       3.12810340        0      -0.27067009       0.04303751       0.14257494       0.11459922       0.07140239       0.04837534
Li      12.54745048       5.31262903       5.78933732        1      -0.14137646      -0.30660642      -0.22681738      -0.02356222      -0.00202008       0.01001763
Li       9.25415078       5.35436709       5.79340203        2      -0.09026136       0.12203577      -0.19746030      -0.04763120      -0.02744666       0.06696571
Li      12.57410658       7.27309173       3.09333243        3       0.07627246       0.19094867      -0.11389541      -0.10999769      -0.12765804       0.11087631
Li      10.90257467       4.40629584       3.06605954        4      -0.09941441       0.04797524      -0.31686141      -0.01778091       0.02322467      -0.02981138
Li      10.88774749       8.16113876       5.76629787        5       0.00779720      -0.28446906      -0.29094257      -0.00258839       0.23071368       0.15381072
P        7.27523631       4.21899777       2.96858761        6       0.21609040       0.44691691      -0.19733956      -0.25272998      -0.36667699      -0.20340003
S        7.28220274       6.14359006       2.28569565        7       0.16679041       0.24363638       0.19238110      -0.04112023       0.12964985      -0.18558221
S        8.91918680       3.20973437       2.27010051        8      -0.87290321      -0.39140511      -0.20390711       0.22303765       0.14815363      -0.01734148
S        5.59657527       3.22459691       2.28761259        9       0.47033145      -0.26433250       0.17327196       0.01026713       0.09273496      -0.01515801
S        7.26357675       4.20119327       5.00540150       10      -0.02373021       0.19203533      -0.12010511       0.09279920      -0.03761918       0.32348692
S       10.91008578       6.29309750       4.46640879       11       0.47039454       0.24166296       0.75901285       0.01444270      -0.10725799      -0.25418550
Cl       0.00514199      -0.00711035       0.01750735       12       0.09067928      -0.28143566       0.40008800       0.04026474      -0.02720026      -0.00805395
13
Lattice="7.26870274 0.0 0.0 3.634351370000001 6.294881225397555 0.0 3.634351370000001 2.0982937417991856 5.934870934989993" Properties=species:S:1:pos:R:3:spacegroup_kinds:I:1:momenta:R:3:forces:R:3 spacegroup="P 1" unit_cell=conventional occupancy="_JSON {\"0\": {\"Li\": 1}, \"1\": {\"Li\": 1}, \"2\": {\"Li\": 1}, \"3\": {\"Li\": 1}, \"4\": {\"Li\": 1}, \"5\": {\"Li\": 1}, \"6\": {\"P\": 1}, \"7\": {\"S\": 1}, \"8\": {\"S\": 1}, \"9\": {\"S\": 1}, \"10\": {\"S\": 1}, \"11\": {\"S\": 1}, \"12\": {\"Cl\": 1}}" energy=-53.32612228393555 free_energy=-53.32612228393555 stress="-0.001986225601285696 0.0008480626274831593 -4.513615931500681e-05 0.0008480626274831593 -0.002916282042860985 -7.4303684414189775e-06 -4.513615931500681e-05 -7.4303684414189775e-06 -0.0026595487724989653" pbc="T T T"
Li       9.22177169       7.23986949       3.13316681        0      -0.09588144      -0.00342573       0.13093695       0.13412854       0.07864515       0.05974540
Li      12.54250072       5.30372883       5.78200088        1      -0.20381468      -0.23252361      -0.20665958      -0.00807426      -0.01661578       0.03735526
Li       9.25238001       5.35880915       5.78771576        2      -0.03417298       0.16585595      -0.06261263      -0.05810741      -0.03083542       0.09468715
Li      12.57561234       7.27989769       3.08871049        3      -0.03729933       0.17734446      -0.12479579      -0.12145216      -0.16225731       0.13041094
Li      10.90034441       4.41018761       3.05660128        4      -0.02950411       0.11757432      -0.26622991      -0.01173556       0.03150541      -0.03380155
Li      10.89037491       8.15321082       5.75535058        5       0.09983510      -0.13677904      -0.24888290       0.00166647       0.30644193       0.21467167
P        7.27703951       4.22202498       2.96683700        6       0.26874169       0.25536357      -0.29320324      -0.33264935      -0.40714258      -0.13683121
S        7.28336413       6.14427792       2.28704846        7       0.12211869       0.09512185       0.10416408      -0.04353791       0.16180649      -0.22940804
S        8.91204796       3.20663136       2.26852167        8      -0.78211085      -0.31194684      -0.14984456       0.30144036       0.16148502      -0.05150144
S        5.59876076       3.22338395       2.28801642        9       0.22839836      -0.02692296      -0.06380179      -0.00323550       0.10940044      -0.02314677
S        7.26385995       4.20274408       5.00594129       10       0.08148395       0.07400084       0.11888857       0.10196878      -0.05116587       0.29451331
S       10.91431207       6.29466696       4.47174676       11       0.51886658       0.11416017       0.76057416      -0.00854233      -0.15057161      -0.34853789
Cl       0.00488754      -0.00892373       0.02005997       12      -0.13666093      -0.28782298       0.30146664       0.04813037      -0.03069596      -0.00815691
13
Lattice="7.26870274 0.0 0.0 3.634351370000001 6.294881225397555 0.0 3.634351370000001 2.0982937417991856 5.934870934989993" Properties=species:S:1:pos:R:3:spacegroup_kinds:I:1:momenta:R:3:forces:R:3 spacegroup="P 1" unit_cell=conventional occupancy="_JSON {\"0\": {\"Li\": 1}, \"1\": {\"Li\": 1}, \"2\": {\"Li\": 1}, \"3\": {\"Li\": 1}, \"4\": {\"Li\": 1}, \"5\": {\"Li\": 1}, \"6\": {\"P\": 1}, \"7\": {\"S\": 1}, \"8\": {\"S\": 1}, \"9\": {\"S\": 1}, \"10\": {\"S\": 1}, \"11\": {\"S\": 1}, \"12\": {\"Cl\": 1}}" energy=-53.315330505371094 free_energy=-53.315330505371094 stress="-0.0025579482316970825 0.0010339729487895966 -5.111333666718565e-05 0.0010339729487895966 -0.00335254380479455 -7.222322892630473e-05 -5.111333666718565e-05 -7.222322892630473e-05 -0.0022874625865370035" pbc="T T T"
Li       9.21848415       7.24133242       3.14098752        0      -0.14730374       0.04709231       0.24639157       0.13749528       0.08145960       0.06574659
Li      12.53792067       5.29569434       5.77326553        1      -0.07241059      -0.25258237      -0.30086430       0.01115887      -0.03203660       0.06967838
Li       9.25164509       5.36487893       5.78737828        2      -0.11822106       0.17191848      -0.01752195      -0.07174329      -0.03476533       0.10391279
Li      12.57324154       7.28625143       3.08286141        3      -0.03586457       0.13462607      -0.15287239      -0.12283839      -0.20098642       0.14445560
Li      10.89964821       4.41318582       3.04764479        4      -0.07239331       0.05162493      -0.27663485      -0.01304097       0.04328192      -0.03330299
Li      10.89953041       8.14924600       5.74584347        5       0.25546014      -0.03662871      -0.24989543       0.01131287       0.36604622       0.26647779
P        7.27833202       4.22335407       2.96432180        6       0.12330371       0.19206608      -0.27694896      -0.38386968      -0.38280320      -0.05253550
S        7.28464676       6.14590055       2.28702308        7       0.33458675       0.28351070      -0.08522368      -0.04752035       0.16047630      -0.24784824
S        8.90542292       3.20353601       2.26715833        8      -0.85420417      -0.41106774      -0.03804671       0.37831146       0.16986506      -0.09155579
S        5.60133646       3.22260500       2.28835355        9       0.42871335      -0.13327554       0.09068229      -0.03333252       0.10912908      -0.02812990
S        7.26458000       4.20412174       5.00707329       10       0.05050179       0.22071962       0.04046426       0.11066064      -0.05815249       0.24354768
S       10.91754322       6.29601416       4.47772779       11       0.38736509       0.19163175       0.73792513      -0.02928800      -0.18780380      -0.43384486
Cl       0.00308379      -0.01141909       0.02174189       12      -0.27953335      -0.45963558       0.28254500       0.05269419      -0.03371033      -0.00660153
13