13
Lattice="7.26870274 0.0 0.0 3.634351370000001 6.294881225397555 0.0 3.634351370000001 2.0982937417991856 5.934870934989993" Properties=species:S:1:pos:R:3:spacegroup_kinds:I:1:forces:R:3 spacegroup="P 1" unit_cell=conventional occupancy="_JSON {\"0\": {\"Li\": 1}, \"1\": {\"Li\": 1}, \"2\": {\"Li\": 1}, \"3\": {\"Li\": 1}, \"4\": {\"Li\": 1}, \"5\": {\"Li\": 1}, \"6\": {\"P\": 1}, \"7\": {\"S\": 1}, \"8\": {\"S\": 1}, \"9\": {\"S\": 1}, \"10\": {\"S\": 1}, \"11\": {\"S\": 1}, \"12\": {\"Cl\": 1}}" energy=-53.3634147644043 free_energy=-53.3634147644043 stress="-0.0007942012161947787 -2.394490934420901e-07 -1.7459939272157499e-07 -2.394490934420901e-07 -0.0007939324714243412 -1.0959594476389611e-07 -1.7459939272157499e-07 -1.0959594476389611e-07 -0.0007939130300655961" pbc="T T T"
Li       9.25387995       7.24703237       3.10460814        0       0.00422604      -0.00243475       0.00344849
Li      12.55222827       5.34273008       5.79769826        1      -0.00421103       0.00243307      -0.00344119
Li       9.25387995       5.34273008       5.79769826        2       0.00422433       0.00243874      -0.00344655
Li      12.55222827       7.24703237       3.10460814        3      -0.00421192      -0.00243067       0.00344074
Li      10.90305411       4.39057894       3.10460814        4       0.00000254       0.00487611       0.00344825
Li      10.90305411       8.19918351       5.79769826        5       0.00000152      -0.00486340      -0.00344137
P        7.26870274       4.19658748       2.96743547        6       0.00008545       0.00004603       0.00003572
S        7.26870637       6.13578650       2.28182731        7      -0.00001802      -0.01090944       0.00384737
S        8.94810016       3.22699113       2.28182731        8      -0.00945801       0.00544044       0.00384702
S        5.58931258       3.22699113       2.28182731        9       0.00937822       0.00541317       0.00383056
S        7.26870637       4.19658958       5.02426588       10      -0.00001908      -0.00000963      -0.01156960
S       10.90305411       6.29488123       4.45115320       11      -0.00000197      -0.00000098       0.00000006
Cl       0.00000000       0.00000000       0.00000000       12       0.00000195       0.00000131       0.00000056
