56
Lattice="10.7619164 0.0 0.0 -9.665296305262016 4.732958053065482 0.0 -0.5483100463354086 -2.3664790220718444 10.484177494289693" Properties=species:S:1:pos:R:3:spacegroup_kinds:I:1:momenta:R:3:forces:R:3 spacegroup="P 1" unit_cell=conventional occupancy="_JSON {\"0\": {\"H\": 1}, \"1\": {\"H\": 1}, \"2\": {\"H\": 1}, \"3\": {\"H\": 1}, \"4\": {\"H\": 1}, \"5\": {\"H\": 1}, \"6\": {\"H\": 1}, \"7\": {\"H\": 1}, \"8\": {\"H\": 1}, \"9\": {\"H\": 1}, \"10\": {\"H\": 1}, \"11\": {\"H\": 1}, \"12\": {\"H\": 1}, \"13\": {\"H\": 1}, \"14\": {\"H\": 1}, \"15\": {\"H\": 1}, \"16\": {\"H\": 1}, \"17\": {\"H\": 1}, \"18\": {\"H\": 1}, \"19\": {\"H\": 1}, \"20\": {\"H\": 1}, \"21\": {\"H\": 1}, \"22\": {\"H\": 1}, \"23\": {\"H\": 1}, \"24\": {\"H\": 1}, \"25\": {\"H\": 1}, \"26\": {\"H\": 1}, \"27\": {\"H\": 1}, \"28\": {\"H\": 1}, \"29\": {\"H\": 1}, \"30\": {\"H\": 1}, \"31\": {\"H\": 1}, \"32\": {\"C\": 1}, \"33\": {\"C\": 1}, \"34\": {\"C\": 1}, \"35\": {\"C\": 1}, \"36\": {\"C\": 1}, \"37\": {\"C\": 1}, \"38\": {\"C\": 1}, \"39\": {\"C\": 1}, \"40\": {\"C\": 1}, \"41\": {\"C\": 1}, \"42\": {\"C\": 1}, \"43\": {\"C\": 1}, \"44\": {\"C\": 1}, \"45\": {\"C\": 1}, \"46\": {\"C\": 1}, \"47\": {\"C\": 1}, \"48\": {\"O\": 1}, \"49\": {\"O\": 1}, \"50\": {\"O\": 1}, \"51\": {\"O\": 1}, \"52\": {\"O\": 1}, \"53\": {\"O\": 1}, \"54\": {\"O\": 1}, \"55\": {\"O\": 1}}" energy=-313.621826171875 free_energy=-313.621826171875 stress="-0.006905397865921259 -0.001385312993079424 -0.004504770040512085 -0.001385312993079424 0.009439101442694664 0.0056000156328082085 -0.004504770040512085 0.0056000156328082085 0.013406891375780106" pbc="T T T"
H        0.49738843       1.84331589       1.77824703        0      -0.10613464      -0.09781591       0.11564506      -0.18202788       0.31332031       0.59539974
H        0.10556169      -0.11663704       8.27653525        1       0.04015916      -0.13169443       0.14437753      -0.36897790      -0.78899026       0.22590794
H        6.62289116      -0.91207529       5.20265708        2      -0.16864494       0.10450140      -0.19164192       0.98594391      -0.03108373       0.77321744
H        3.36922848       0.56254880       5.08036100        3       0.12068381      -0.12390848       0.11664068      -0.39408511      -0.59534287      -0.23536325
H        5.95301300       0.59228787       3.38812089        4       0.14111022      -0.33747280      -0.07871817      -0.93092436      -0.50391853       0.87668270
H        5.01743987       0.42520642       7.32442036        5      -0.23162800       0.06489330      -0.14197766      -0.38864782      -1.26104784      -0.47847688
H       -1.57731830       0.54128627      10.53958360        6      -0.12407160      -0.08816858      -0.07763651      -0.37742323      -0.46801424       0.30722117
H        2.69863442       2.00433368       0.26116707        7      -0.05404040       0.01557207      -0.10225854      -0.72496235      -0.67534393      -0.86532342
H       -1.22303990       1.63674004       1.75940501        8      -0.05425061       0.24253204      -0.13897924      -0.49740875      -0.09367467       0.10530769
H       -8.93359137       2.96971022       8.47514770        9      -0.06042330      -0.12559326      -0.10762138       0.36623716      -0.63053906       0.55259699
H       -2.26849171       4.25936948       6.83350137       10       0.20578980       0.12214796       0.33238317      -0.06949979      -0.47619578      -0.34378016
H       -6.68836061       4.95609530       3.39407468       11      -0.06212333       0.10325993      -0.15892728       0.13254122      -0.56484991       0.15243620
H       -3.12925551       0.32645866       3.01954361       12       0.09286658       0.17897868      -0.00989688       0.31408834       0.11225802       0.01380480
H       -6.80751097       1.79512340       7.74588665       13       0.11313471      -0.05419519      -0.04504039      -2.35591078       0.59493196      -0.52510256
H       -1.67751190       0.97559896       8.80862586       14       0.00516175      -0.30016449      -0.16851697      -0.66053462       0.17536098       0.81921577
H       -7.85157909       2.25969149       2.02092865       15       0.06193745       0.16966540       0.04108987       0.45022079       0.30493066      -0.97372001
H       -1.03679271       0.54726109       4.10971810       16       0.09384683       0.18126186      -0.07858853       0.29054379       0.47455782       0.73892713
H        1.41496407       2.60741889       5.94194781       17       0.17914753       0.16208000      -0.08142883       0.04019756      -0.18983334       0.67822665
H       -0.64058361       2.00872461       6.06364839       18      -0.05634338       0.12337318       0.04032497      -0.53550953       0.51594853      -0.09275120
H        0.85977752      -0.92446383       4.06230143       19       0.08226672       0.01615453       0.13954133      -0.43778449      -0.05475932       0.42651501
H        7.07832350       1.52716350       0.77918400       20       0.03745917       0.06298829      -0.11847481      -0.51151288      -0.36469591      -0.19009952
H       -5.65481858       2.28567702       9.73115053       21       0.07723555       0.36926155      -0.07796386       0.09997322      -0.39056894       0.05156072
H        6.08095720      -2.02800083       9.57309401       22       0.04996135       0.13992113      -0.04251352       0.10451926      -0.44054967      -0.00564238
H       -5.39307833       3.26285547       1.28813584       23      -0.08191829      -0.05415517       0.26987100      -0.86360759      -0.75486499      -0.77635705
H       -0.07299363       0.27971737       1.81916991       24       0.13898002       0.34269444       0.14181220      -0.42564186      -0.34437746       0.62044728
H       -1.06700060      -1.51563944       8.21163893       25      -0.20145824       0.01373060       0.07616519      -0.17210019      -0.24384740       0.51164591
H       -2.96209863       2.60530167       6.43440295       26       0.06315696      -0.07175052      -0.16381517       0.16209981       0.09858984       0.31126449
H       -6.35720015       3.51669314       4.57538967       27       0.16449776       0.18567706       0.02440265      -0.60310102       1.40273643      -0.34498698
H       -3.82677256       2.00991114       3.18430557       28       0.08980671      -0.11710749      -0.00472180       0.23108837       0.02061306      -0.20068561
H       -5.17636491       2.03285247       7.19923506       29       0.10905536      -0.18779552       0.15105902      -0.36807662      -0.23564447       0.74253476
H       -0.79357757       4.53174494      -0.43569574       30      -0.12627956      -0.10201555      -0.01900688      -0.09976365       0.06219429       0.11299989
H        2.31575693       1.30675577      11.36317790       31       0.12164094       0.07458613      -0.08519286       0.08103969      -0.48912174      -0.09376726
C       -0.37163609       1.38708494       3.80590649       32       0.82677542       0.29513823       0.09766172       0.43049008      -0.84295684      -2.02712154
C        0.11847904      -1.18778285       6.49983773       33      -0.62840466      -0.18736749      -0.14628133      -0.37041995       0.27214918      -0.96541971
C       -0.97555885       2.96185315       5.57576505       34      -0.36449097      -1.07571731       0.20948560       0.37154669       0.17797124       0.59155226
C        1.35011578      -0.15700496       4.68315325       35      -0.02227811       0.95830802       0.13073047       0.73835176       1.50495493       0.40340331
C        6.36784107       0.86650858       1.33870132       36       0.30590439       0.88519566       1.28776728       1.97926664      -0.30296510       0.89318055
C       -5.53677827       1.29363399       9.24627697       37       0.27688722      -0.37683915       0.66636641      -0.66257662      -0.77057898       0.58605033
C       -3.39932670       1.69730077      10.02118780       38      -0.84111627      -0.44256912       0.59809707       0.37921268       0.54998451       0.65977085
C        4.71880452       2.50518189       0.70336301       39       0.38984744       0.88224258      -0.51305324      -0.59658414       1.44277477       0.49372387
C       -0.32683935       1.26219665       2.24609209       40      -0.63948225       0.50545724       0.23424395       0.77351993       0.79703736      -0.39456838
C       -0.05210457      -1.19852060       8.01058158       41       0.11582633      -0.65737131      -0.92747688       0.85167456       1.37446880      -1.02301717
C       -2.37909939       3.46525752       6.06278717       42      -0.05353662       0.08466699      -0.15003016      -0.40585154      -0.60533541      -1.67187095
C        2.83806341      -0.17358536       4.41939547       43       0.55229997       0.76816342      -0.43150153       1.06821156      -0.67908734       0.54368848
C        6.77902033       0.98017853       2.84378925       44      -1.12306923      -0.45028970       0.26639859      -0.51440996       0.02888723      -1.28143609
C       -5.86817691       1.36776540       7.79427954       45      -0.98979760      -0.05587957      -0.83441327       2.87883282       1.13958871      -0.55466771
C       -1.97699393       1.28319926       9.85895610       46       0.40696710      -0.18668024       0.33790813       1.72739887       0.51335114      -1.56747770
C        3.19008761       2.61285361       0.97606075       47       0.25747370       0.90120815      -0.18333146       1.07156920       1.22874057       1.82997763
O       -0.85758716       2.66103184       4.11713034       48       0.61684469      -0.37118734       1.25663913      -0.17584857       0.40347198       1.06924868
O        1.08909375      -0.23997535       6.12862839       49      -0.39618545      -0.37804522      -0.11483640       0.12260024      -0.37597486      -0.82797062
O       -1.16050481      -0.72093720       5.97406334       50      -0.34983604      -1.05740152      -0.27246567      -0.47366810      -0.41497827      -0.96765214
O        1.00795481       1.19208947       4.24044419       51      -0.03056956       0.15482637      -1.24559162      -1.03328061      -0.52625537       0.63128823
O       -3.10184415       4.20162623       0.97719078       52      -0.29226548       0.28802315      -0.94690333      -0.31201994       1.32850313      -0.04797836
O        4.30825708       0.33413967       9.75623668       53       0.02704196      -1.15722822      -0.33727145      -0.25940701       0.04012294       0.50475621
O       -4.24389650       0.74756658       9.49746222       54       0.41595533      -0.82784195       0.02625895       0.13963893       0.06729589      -0.42571598
O        5.02961377       1.21054927       1.07684145       55       0.87862660       0.61974609       1.29120761      -0.01924089      -0.82934844       0.05840117
