56
Lattice="10.7619164 0.0 0.0 -9.665296305262016 4.732958053065482 0.0 -0.5483100463354086 -2.3664790220718444 10.484177494289693" Properties=species:S:1:pos:R:3:spacegroup_kinds:I:1:momenta:R:3:forces:R:3 spacegroup="P 1" unit_cell=conventional occupancy="_JSON {\"0\": {\"H\": 1}, \"1\": {\"H\": 1}, \"2\": {\"H\": 1}, \"3\": {\"H\": 1}, \"4\": {\"H\": 1}, \"5\": {\"H\": 1}, \"6\": {\"H\": 1}, \"7\": {\"H\": 1}, \"8\": {\"H\": 1}, \"9\": {\"H\": 1}, \"10\": {\"H\": 1}, \"11\": {\"H\": 1}, \"12\": {\"H\": 1}, \"13\": {\"H\": 1}, \"14\": {\"H\": 1}, \"15\": {\"H\": 1}, \"16\": {\"H\": 1}, \"17\": {\"H\": 1}, \"18\": {\"H\": 1}, \"19\": {\"H\": 1}, \"20\": {\"H\": 1}, \"21\": {\"H\": 1}, \"22\": {\"H\": 1}, \"23\": {\"H\": 1}, \"24\": {\"H\": 1}, \"25\": {\"H\": 1}, \"26\": {\"H\": 1}, \"27\": {\"H\": 1}, \"28\": {\"H\": 1}, \"29\": {\"H\": 1}, \"30\": {\"H\": 1}, \"31\": {\"H\": 1}, \"32\": {\"C\": 1}, \"33\": {\"C\": 1}, \"34\": {\"C\": 1}, \"35\": {\"C\": 1}, \"36\": {\"C\": 1}, \"37\": {\"C\": 1}, \"38\": {\"C\": 1}, \"39\": {\"C\": 1}, \"40\": {\"C\": 1}, \"41\": {\"C\": 1}, \"42\": {\"C\": 1}, \"43\": {\"C\": 1}, \"44\": {\"C\": 1}, \"45\": {\"C\": 1}, \"46\": {\"C\": 1}, \"47\": {\"C\": 1}, \"48\": {\"O\": 1}, \"49\": {\"O\": 1}, \"50\": {\"O\": 1}, \"51\": {\"O\": 1}, \"52\": {\"O\": 1}, \"53\": {\"O\": 1}, \"54\": {\"O\": 1}, \"55\": {\"O\": 1}}" energy=-315.20623779296875 free_energy=-315.20623779296875 stress="0.0015259836800396442 -0.0007349725347012281 -5.979228490105015e-07 -0.0007349725347012281 -0.001476823235861957 6.356488313485897e-08 -5.979228490105015e-07 6.356488313485897e-08 0.0016979766078293324" pbc="T T T"
H       -0.01248427       2.27696696       1.83153339        0       0.26354636       0.05758816       0.17128558       0.07122756       0.02707761       0.05251686
H        0.46428407      -0.32702137       8.65264411        1       0.35723632       0.30052336      -0.15421514      -0.05205584       0.05564503      -0.05251556
H        7.11696904      -0.62167877       5.76820574        2       0.13651140      -0.03657588      -0.02448058       0.06071809       0.02959735      -0.06332465
H        3.54843712       0.20514534       4.71597175        3       0.04495575       0.01373704       0.24194406      -0.04159853       0.05318635       0.06330251
H        5.94175252       0.08951207       3.41055536        4       0.10004105       0.00919574       0.06893732      -0.07122682      -0.02707752      -0.05251742
H        4.91667413       0.32702137       7.07362213        5       0.03762731       0.23702154      -0.03633186       0.05205720      -0.05563826       0.05251883
H       -1.73601084       0.62167878       9.95806050        6       0.04090260      -0.15000140      -0.41043770      -0.06071860      -0.02958640       0.06332371
H        2.38083113       2.16133369       0.52611700        7       0.07639930       0.13373956      -0.11953039       0.04159830      -0.05318586      -0.06330170
H       -1.38564785       1.18011340       2.11584331        8       0.34764813      -0.24942510       0.01968671       0.00912173       0.09641452       0.00989623
H       -8.45014457       2.81694541       8.36833418        9      -0.04487542       0.24826795       0.27191556       0.03391355       0.09078090      -0.00994029
H       -2.58250803       2.70418269       6.85836100       10       0.00836639       0.05472545      -0.13232917       0.03144381       0.09145404       0.01228234
H       -6.70499477       3.65935988       3.62581649       11      -0.35280026      -0.06406840       0.05024236       0.01202242       0.09588345      -0.01239183
H       -3.44700030       1.18636563       3.12624543       12       0.17759995       0.19181929      -0.04741865      -0.00912191      -0.09641401      -0.00989484
H       -6.59610993       1.91601265       7.35793206       13      -0.06659844      -0.18039638      -0.21144164      -0.03391598      -0.09078132       0.00994127
H       -1.70183007       2.02877537       8.86790524       14      -0.29590695       0.31510437      -0.07166042      -0.03144057      -0.09144863      -0.01229320
H       -7.79294969       3.44007720       1.61627226       15      -0.10166361      -0.21365327       0.15571300      -0.01202449      -0.09588456       0.01238954
H       -0.77544238       0.72057867       4.36236141       16      -0.29135246      -0.04383699      -0.13778795      -0.05580248      -0.06497554       0.06553190
H        1.56164860       2.67260202       6.12181608       17       0.04513471      -0.09416448      -0.19034861       0.02151131      -0.08285681      -0.06550516
H       -0.46393564       1.89516633       6.16016720       18      -0.02388752       0.06229365       0.02104621       0.04679065      -0.08891332       0.03981788
H        0.70181139      -0.86845994       4.32401029       19       0.02574107      -0.11427781      -0.05287528      -0.08095930      -0.05914059      -0.03975108
H        6.70471062       1.64590036       0.87972733       20      -0.14286290      -0.07079985      -0.14118650       0.05580582       0.06498158      -0.06553434
H       -5.84598670       2.06035604       9.60445016       21      -0.29753233       0.02254640      -0.04431235      -0.02151369       0.08285379       0.06550394
H        5.84489385      -1.89516633       9.56609904       22      -0.28312851       0.06560536      -0.15494221      -0.04679305       0.08891533      -0.03981569
H       -5.53445954       3.23493897       0.91807845       23      -0.02208037       0.11416853       0.04301970       0.08095737       0.05914021       0.03974676
H        0.25131050       0.51347389       1.94957474       24       0.15959789      -0.21361364       0.07505588      -0.00851012      -0.01871566      -0.03717799
H       -0.54820374      -1.79480395       8.53460275       25      -0.12868866      -0.15316038      -0.08588331      -0.00032997      -0.02044823       0.03709347
H       -2.80766320       2.46899490       5.11315433       26      -0.07305533       0.00146869      -0.17781296      -0.04083840      -0.01125208       0.00405088
H       -6.60619587       3.34910738       5.37102316       27       0.12888264       0.07074453      -0.23064715       0.03167377      -0.02802471      -0.00411337
H       -5.08395866       1.85300514       3.29251401       28       0.22099581       0.30740365       0.21601993       0.00851469       0.01871271       0.03717741
H       -4.83275446       1.79480396       7.19166349       29      -0.04673026      -0.18471461       0.19482948       0.00034794       0.02045743      -0.03709820
H       -0.92836486       4.63044218       0.12893441       30      -0.09883902       0.19431951       0.04569436       0.04083278       0.01124328      -0.00406460
H        2.32185777       1.38385068      10.35524308       31       0.15211596       0.04921952       0.12080102      -0.03167605       0.02802744       0.00411105
C       -0.12835063       1.44534837       3.84841655       32      -0.28778073       0.91754073       0.18270710      -0.01445509       0.09213193      -0.08206779
C        0.20260826      -1.12485611       6.63576095       33       0.00096406       0.97078231      -0.67128192       0.05361583       0.07627201       0.08205894
C       -0.77226604       2.84130358       5.69336968       34      -0.96473690       0.45234422      -0.54337998      -0.06051254       0.10292885       0.03487919
C        1.39483372      -0.15433229       4.79080781       35       0.83737779      -0.34833687      -0.35976593       0.09947529       0.06571139      -0.03489180
C        6.05761888       0.92113066       1.39367220       36       0.73780001       0.71679960       1.01054651       0.01444585      -0.09213851       0.08206880
C       -5.58356646       1.12485611       9.09050530       37       0.36600935      -0.57579551       1.35161317      -0.05360182      -0.07626267      -0.08206105
C       -3.51207206       1.89165448      10.03289656       38      -0.27702103       0.36712178       0.74445208       0.06052604      -0.10293408      -0.03489040
C        4.53443453       2.52081132       0.45128094       39      -0.47025582       0.22782501       0.51146167      -0.09947181      -0.06571898       0.03490327
C       -0.32593927       1.35886302       2.34265801       40      -0.11966996      -0.73251108       0.28611321      -0.02487616      -0.04884228       0.03836584
C        0.34202778      -1.28942579       8.14151949       41       0.57030904      -0.50578053       0.01064034       0.00090429      -0.05509102      -0.03821120
C       -2.26824862       3.05565688       5.86632716       42      -0.48098077       0.96238649       0.55365818       0.02524461      -0.06073746       0.01393186
C        2.83264719      -0.61974062       4.61785033       43      -0.04860277      -0.55844948       0.33742963      -0.04932065      -0.04330850      -0.01374381
C        6.25520752       1.00761601       2.89943074       44      -0.70747446      -0.11378709      -0.42767829       0.02487031       0.04884323      -0.03836608
C       -5.72298598       1.28942580       7.58474676       45       0.19434055       0.24831833       0.14297097      -0.00092406       0.05507597       0.03821176
C       -2.01608948       1.67730118       9.85993908       46       0.09740524      -0.72425149      -0.69205550      -0.02525431       0.06073195      -0.01389907
C        3.09662106       2.98621965       0.62423841       47      -0.12331172      -0.02208015       0.38636924       0.04932674       0.04330528       0.01374342
O       -0.42625656       2.75924355       4.28180099       48       1.20625674       0.48604619      -0.44497158       0.00567095      -0.06416610       0.01081773
O        1.04798334      -0.07585512       6.20237650       49       0.42305791      -1.01659881      -0.20166176      -0.03317451      -0.05508561      -0.01086355
O       -1.17294689      -0.80803189       6.28015861       50      -0.36133290       0.99731317      -0.30860065      -0.00324858      -0.06212866      -0.01994127
O        1.24638404       1.12493657       4.20401888       51      -0.92624698      -0.21254257      -0.34164539      -0.02462116      -0.05716512       0.01989354
O       -3.30977150       4.34019353       0.96028775       52       0.26500009      -0.83301049      -0.49473951      -0.00567174       0.06416637      -0.01082131
O        4.33297486       0.07585512       9.52388974       53      -0.48283211      -0.49689578       1.25894465       0.03316841       0.05508538       0.01086790
O       -4.20801131       0.80803190       9.44610763       54       0.43498781      -0.06064940      -0.51538975       0.00324871       0.06213014       0.01994734
O        4.68288421       1.24154246       1.03806987       55       0.06343698      -0.82659266      -1.04828579       0.02462489       0.05716902      -0.01989659
56
Lattice="10.7619164 0.0 0.0 -9.665296305262016 4.732958053065482 0.0 -0.5483100463354086 -2.3664790220718444 10.484177494289693" Properties=species:S:1:pos:R:3:spacegroup_kinds:I:1:momenta:R:3:forces:R:3 spacegroup="P 1" unit_cell=conventional occupancy="_JSON {\"0\": {\"H\": 1}, \"1\": {\"H\": 1}, \"2\": {\"H\": 1}, \"3\": {\"H\": 1}, \"4\": {\"H\": 1}, \"5\": {\"H\": 1}, \"6\": {\"H\": 1}, \"7\": {\"H\": 1}, \"8\": {\"H\": 1}, \"9\": {\"H\": 1}, \"10\": {\"H\": 1}, \"11\": {\"H\": 1}, \"12\": {\"H\": 1}, \"13\": {\"H\": 1}, \"14\": {\"H\": 1}, \"15\": {\"H\": 1}, \"16\": {\"H\": 1}, \"17\": {\"H\": 1}, \"18\": {\"H\": 1}, \"19\": {\"H\": 1}, \"20\": {\"H\": 1}, \"21\": {\"H\": 1}, \"22\": {\"H\": 1}, \"23\": {\"H\": 1}, \"24\": {\"H\": 1}, \"25\": {\"H\": 1}, \"26\": {\"H\": 1}, \"27\": {\"H\": 1}, \"28\": {\"H\": 1}, \"29\": {\"H\": 1}, \"30\": {\"H\": 1}, \"31\": {\"H\": 1}, \"32\": {\"C\": 1}, \"33\": {\"C\": 1}, \"34\": {\"C\": 1}, \"35\": {\"C\": 1}, \"36\": {\"C\": 1}, \"37\": {\"C\": 1}, \"38\": {\"C\": 1}, \"39\": {\"C\": 1}, \"40\": {\"C\": 1}, \"41\": {\"C\": 1}, \"42\": {\"C\": 1}, \"43\": {\"C\": 1}, \"44\": {\"C\": 1}, \"45\": {\"C\": 1}, \"46\": {\"C\": 1}, \"47\": {\"C\": 1}, \"48\": {\"O\": 1}, \"49\": {\"O\": 1}, \"50\": {\"O\": 1}, \"51\": {\"O\": 1}, \"52\": {\"O\": 1}, \"53\": {\"O\": 1}, \"54\": {\"O\": 1}, \"55\": {\"O\": 1}}" energy=-314.163330078125 free_energy=-314.163330078125 stress="0.0017965249717235565 -0.006295067258179188 0.004064938984811306 -0.006295067258179188 0.0028975973837077618 0.006800128147006035 0.004064938984811306 0.006800128147006035 -0.004473621025681496" pbc="T T T"
H        0.12223873       2.21335580       1.84744822        0      -0.06388218      -0.04108002      -0.23331088      -0.34890521      -0.46717680       0.26391557
H        0.31702075      -0.21474892       8.50409128        1      -0.41596669       0.28241792       0.13417994       0.19316709      -0.82257986      -0.04441814
H        7.16689580      -0.52337015       5.79422139        2      -0.01099335       0.09115187       0.18553091      -0.25331393       0.53084320      -0.08150341
H        3.56769339       0.19128013       4.81695806        3       0.00635008       0.03106363      -0.05661336      -0.45246935      -0.59983218       0.03513623
H        5.89857396       0.12906196       3.45590354        4      -0.13662960       0.06346648       0.07412517      -0.11012725      -0.04154637      -0.10463308
H        5.01440548       0.32414384       7.14335939        5       0.11996953      -0.01313407       0.16304597      -0.17231202      -0.44180489      -0.12289631
H       -1.69404181       0.62953423       9.70230159        6      -0.06773573       0.00953591      -0.07983927      -0.29939714      -0.31745771       0.05525903
H        2.37945911       2.25462950       0.31381000        7      -0.10899716       0.12801560      -0.23887821      -0.36571208      -0.41984838      -0.02494903
H       -1.28062218       1.09681357       2.00394187        8       0.10394083       0.17626284      -0.14567628      -0.56132436      -0.12197565      -0.18949646
H       -8.36548926       3.00985762       8.44664940        9       0.01874381       0.07750813      -0.14054398       0.39231679      -0.31946439      -0.01170143
H       -2.54664932       2.78893570       6.82205311       10       0.03048607       0.25775613      -0.04488830      -0.41237253      -0.20837843       1.19028521
H       -6.74143408       3.80633213       3.57290631       11       0.32050251       0.15943878       0.02898731       0.31104106       0.03236920       0.37734956
H       -3.41360543       1.09458053       3.05616295       12       0.34318381      -0.23802470       0.07743261      -0.50854105       0.08234672       0.33155933
H       -6.59466940       1.88031617       7.31880479       13       0.01536680       0.03548303       0.08656139      -0.08189712      -0.12137171       0.20796520
H       -1.92963188       2.16013643       8.81427843       14       0.12531104      -0.02323632      -0.06973041       0.40313667      -0.12264643      -0.32056555
H       -7.86690880       3.29972360       1.71696129       15      -0.08477311      -0.03159826       0.12293882      -0.01434036      -0.41004339      -0.77136552
H       -0.90235497       0.77646746       4.33988643       16      -0.08686002      -0.05814803       0.28342573       0.40912682       0.11714843       0.19912322
H        1.57326849       2.69585854       6.02312944       17       0.00715137      -0.12380906      -0.16254833      -0.29899150      -0.23123197       0.25480682
H       -0.61632287       1.91476306       6.12879309       18      -0.08876026       0.01924331      -0.05101232       0.36619532      -0.32495520       0.18464869
H        0.76835882      -0.91704697       4.28843423       19      -0.15605145       0.01894748       0.06988644      -0.03237631       0.22900303       0.08527771
H        6.70609331       1.62092023       0.91686457       20       0.01929249      -0.19191458       0.26163557       0.76997495       0.63578230      -0.47935003
H       -5.82009078       2.01052708       9.75507013       21       0.30326576       0.03656573       0.14022302      -0.00922750      -0.03741162      -0.50983846
H        5.81093413      -1.87039269       9.61285219       22       0.20657580       0.20659835      -0.02039176       0.37428063      -0.52969062       0.33497924
H       -5.59543450       3.24736134       1.04015517       23      -0.04224145      -0.11355001       0.21265887       0.13948424      -0.29077226      -0.10894240
H        0.42784601       0.48710588       2.10176742       24       0.30049791      -0.13611014      -0.00468404      -0.59484428       0.09816395      -0.19185252
H       -0.53518870      -1.77813119       8.52127418       25       0.00655547       0.08690834       0.10595506       0.65831923      -0.06782352      -0.13440561
H       -2.96285658       2.59157646       5.13270583       26      -0.25300667       0.03340915       0.06572318       0.52107185       0.35914683       0.31286699
H       -6.55716742       3.24215830       5.23786856       27      -0.16752559      -0.02805258      -0.10766389       0.03741207      -0.88641036       0.79594237
H       -5.03685278       1.93128223       3.36334309       28      -0.15021147       0.12582549      -0.10191882       0.62859100      -0.83863449      -0.54655415
H       -4.85344605       1.77016485       7.27072599       29      -0.06649186       0.16884068       0.01181287       1.25073004       0.88673401      -0.39224565
H       -0.86175594       4.56432674       0.03964649       30       0.17846399      -0.19144274      -0.07943165      -0.39176095      -0.36752272      -0.55813360
H        2.38301373       1.54051124      10.51636411       31      -0.19060826       0.01911226       0.25223008       0.14690958      -0.16933203       0.11265953
C       -0.17581896       1.46226534       3.84974165       32      -0.18515643      -0.57459529      -0.22058206       0.27883306      -0.44003421       0.08531600
C        0.22192600      -1.12504878       6.58997346       33      -0.07512319      -0.46550098       0.08488179      -0.55275512      -0.80494678       0.23250288
C       -0.84336858       2.87265024       5.66245299       34       0.04319844       0.29158529      -0.23378153       1.13017964       0.50398999      -0.24388492
C        1.43229076      -0.18392811       4.79404745       35      -0.39846551      -0.16641813      -0.07506715      -1.39263535       0.15176794      -0.49470937
C        6.06713487       0.93900034       1.43224267       36      -0.39497132      -0.32073257      -0.80955183      -1.35843778      -1.50483418      -0.67591602
C       -5.58329450       1.10380715       9.15771831       37      -0.36193212      -0.01752066       0.07000850      -0.01275721       0.62095523      -0.17375794
C       -3.52181740       1.89477510      10.09402552       38       0.16177609      -0.52863263       0.28467015       0.13258043       0.16549191      -2.07575250
C        4.51640584       2.52102929       0.51005714       39       0.36138369      -0.43527599       0.58505097       0.14679074       0.12096148       0.07939754
C       -0.28405292       1.30051714       2.35611375       40       0.19195182      -0.55821583       0.03644847       1.44869971       0.72397059      -0.52214843
C        0.37449210      -1.27541845       8.11748206       41       0.14753529       0.49373609      -0.46888080      -1.73077846       1.54829788      -0.36517119
C       -2.30636825       3.14844779       5.85186587       42      -0.25949192       1.26103860      -0.54787141      -0.30482829      -0.37169597      -1.63763380
C        2.84200269      -0.65064888       4.64737901       43       0.56034565      -0.10141640      -0.32885414       0.85266948       1.99937105      -1.91112089
C        6.24443652       1.02088161       2.92126916       44       0.40080580      -0.06552333       0.31202164       0.30224037       0.54350358       0.34550279
C       -5.72072982       1.29321541       7.63361804       45      -0.11247009      -0.13664560       1.05760871      -1.14459836      -0.53769767       0.96596217
C       -2.05012740       1.65516314       9.77267022       46      -0.47453677       0.69520777      -0.54057438       0.62453294       1.48065042       1.00712645
C        3.08351629       3.00246314       0.64822749       47      -0.01605107       0.11556254       0.01380955       0.20967640       0.51371384       0.80870819
O       -0.35411231       2.78763683       4.26978767       48       0.22350748       0.25056265       0.25663318      -1.10039973       0.01685455       0.20638140
O        1.06167984      -0.11984225       6.16496940       49      -0.16821846      -0.55392449      -0.45958744       0.11152102       0.85498810       0.49101371
O       -1.21357943      -0.78977938       6.25156089       50      -0.33543371      -0.44277468      -0.25066826       0.73390514      -0.39541641       0.41342199
O        1.20697421       1.13024276       4.19342497       51       0.17004609       0.12777103       0.14454294       0.59316039      -1.04898453       0.70126730
O       -3.31489246       4.29054000       0.93958223       52      -0.41183558      -0.17658512       0.40053892      -0.10514095       0.93135452       2.17608833
O        4.33821577       0.06296653       9.62059751       53       0.35992278       0.45633082       0.21462737       0.43337864       0.52331924      -1.13897908
O       -4.17202258       0.83010247       9.41381798       54       0.02043446       0.24051366      -0.02777868      -0.78839982      -0.43915796       0.27765542
O        4.70668947       1.20000077       0.96656716       55       0.53785602      -0.22599738      -0.23686586      -0.20128077       0.02995000       1.29980743
56
Lattice="10.7619164 0.0 0.0 -9.665296305262016 4.732958053065482 0.0 -0.5483100463354086 -2.3664790220718444 10.484177494289693" Properties=species:S:1:pos:R:3:spacegroup_kinds:I:1:momenta:R:3:forces:R:3 spacegroup="P 1" unit_cell=conventional occupancy="_JSON {\"0\": {\"H\": 1}, \"1\": {\"H\": 1}, \"2\": {\"H\": 1}, \"3\": {\"H\": 1}, \"4\": {\"H\": 1}, \"5\": {\"H\": 1}, \"6\": {\"H\": 1}, \"7\": {\"H\": 1}, \"8\": {\"H\": 1}, \"9\": {\"H\": 1}, \"10\": {\"H\": 1}, \"11\": {\"H\": 1}, \"12\": {\"H\": 1}, \"13\": {\"H\": 1}, \"14\": {\"H\": 1}, \"15\": {\"H\": 1}, \"16\": {\"H\": 1}, \"17\": {\"H\": 1}, \"18\": {\"H\": 1}, \"19\": {\"H\": 1}, \"20\": {\"H\": 1}, \"21\": {\"H\": 1}, \"22\": {\"H\": 1}, \"23\": {\"H\": 1}, \"24\": {\"H\": 1}, \"25\": {\"H\": 1}, \"26\": {\"H\": 1}, \"27\": {\"H\": 1}, \"28\": {\"H\": 1}, \"29\": {\"H\": 1}, \"30\": {\"H\": 1}, \"31\": {\"H\": 1}, \"32\": {\"C\": 1}, \"33\": {\"C\": 1}, \"34\": {\"C\": 1}, \"35\": {\"C\": 1}, \"36\": {\"C\": 1}, \"37\": {\"C\": 1}, \"38\": {\"C\": 1}, \"39\": {\"C\": 1}, \"40\": {\"C\": 1}, \"41\": {\"C\": 1}, \"42\": {\"C\": 1}, \"43\": {\"C\": 1}, \"44\": {\"C\": 1}, \"45\": {\"C\": 1}, \"46\": {\"C\": 1}, \"47\": {\"C\": 1}, \"48\": {\"O\": 1}, \"49\": {\"O\": 1}, \"50\": {\"O\": 1}, \"51\": {\"O\": 1}, \"52\": {\"O\": 1}, \"53\": {\"O\": 1}, \"54\": {\"O\": 1}, \"55\": {\"O\": 1}}" energy=-313.85382080078125 free_energy=-313.85382080078125 stress="0.013761434704065323 -0.004879462067037821 -0.0056743077002465725 -0.004879462067037821 0.006163898389786482 0.005476057063788176 -0.0056743077002465725 0.005476057063788176 -0.0018128423253074288" pbc="T T T"
H        0.15152037       2.21865817       1.86996606        0       0.18670817      -0.17536475       0.06887319      -0.25463021      -0.83075488       0.05804887
H        0.10920514      -0.19334254       8.62244510        1      -0.00897883       0.26460688      -0.03107054       0.20135939      -1.45994461      -1.01799417
H        7.15516443      -0.39883627       5.76710618        2       0.22383252       0.15937055      -0.34067688       0.18644534       0.19727968      -0.26340365
H        3.55287390       0.14212038       5.10648284        3      -0.16824448      -0.25377447       0.22539390      -0.53552800      -0.32389718      -0.69895869
H        5.71904800       0.28007972       3.48878616        4      -0.14175115       0.06957626       0.07981275      -0.42629397      -0.45673656       0.12704813
H        5.07217440       0.33732697       7.23278702        5      -0.02221044       0.07819959       0.03358486       0.14585131      -0.33883524      -0.34743690
H       -1.86337457       0.61454900       9.70908657        6       0.00210002      -0.06951330       0.02682905       0.35397333       0.27212825       0.03442037
H        2.40409165       2.23500138       0.27412509        7      -0.05904530      -0.08227849      -0.03197412       0.20295089       0.43273532      -0.32657427
H       -1.27779536       1.10993536       2.00836773        8      -0.09536044      -0.13044319       0.02708181      -0.83863878       0.04003372      -0.43664646
H       -8.33962613       3.21420934       8.35225614        9       0.17273780       0.29406223      -0.08361749       0.23368068       0.22765622      -0.09218080
H       -2.54133524       3.01261330       6.85842850       10       0.10491095       0.07367837       0.12017953      -0.11241026      -0.33224311       0.81576526
H       -6.39093372       3.84895159       3.60576958       11       0.14443674       0.00657612      -0.00789903      -0.26307797       0.31060109      -0.29986638
H       -3.37778181       0.94136170       3.24468002       12       0.01522196      -0.07500947       0.19342066      -1.33400321      -0.10755521      -0.76893187
H       -6.68609553       1.78694174       7.51153388       13      -0.08667869      -0.27258682      -0.01170157      -0.20094730      -0.13165195      -0.15521489
H       -1.76453239       2.05976694       8.70170608       14       0.02189812      -0.10309647       0.09738955      -0.31269461       0.19350307       0.31043997
H       -7.95446006       3.02340533       1.79564972       15      -0.04973551      -0.11226862       0.02076920       0.41189539       0.38057742      -1.18562222
H       -0.80018666       0.77039126       4.49092960       16       0.00831367      -0.06072598      -0.00660620       0.00096965       0.17438725      -0.99411595
H        1.44500777       2.50713057       6.17382263       17       0.01225014      -0.28997354      -0.01209812       0.24866305       1.14404190       0.13491830
H       -0.56090752       1.92546797       6.04306252       18       0.00912428       0.02953051      -0.02228972      -0.35387242      -0.16754331       0.13082565
H        0.67939891      -0.89355048       4.27079636       19       0.07644894      -0.05095170      -0.04691384       0.30057704      -0.10529539      -0.07734898
H        6.74714445       1.49845909       0.85340925       20      -0.11245943      -0.08927551      -0.22056978       0.51641047       1.18712211      -0.49470967
H       -5.80988206       2.10952452       9.71365897       21      -0.20491586       0.06817226      -0.10894783       0.02467421      -0.34780258      -0.22419573
H        5.87596097      -1.83571079       9.70363716       22      -0.16164989       0.07076666       0.03590458      -0.15178733      -0.88952494      -0.00086385
H       -5.50015877       3.11440198       1.13784150       23       0.11933126       0.03126390      -0.00442154      -0.11865106       0.35620737      -0.32354996
H        0.36855198       0.33657766       1.99417355       24      -0.04607109      -0.23447340      -0.15432070      -1.04204154       1.71019435       0.43702257
H       -0.32413899      -2.00709540       8.53026268       25       0.20338999      -0.17844330      -0.18322122       0.05246566       0.67889357      -0.27905414
H       -3.08714233       2.74677635       5.19721883       26      -0.01915493       0.07455442      -0.09249917       0.58998245       0.03474108       0.12558094
H       -6.69673461       3.25872580       5.21696372       27      -0.09696487      -0.06688934      -0.04755620       0.17544004      -1.07492948       0.50442308
H       -4.83143357       2.04721368       3.16449862       28       0.33766934       0.12941298       0.00705012       0.39478016      -1.34768033      -0.01897331
H       -4.93754016       1.99042846       7.37634374       29       0.05869061       0.23203801       0.01089296      -0.29873991      -0.47476581      -0.05642300
H       -0.81005393       4.51876381       0.00822841       30      -0.20155805       0.23295175      -0.03457243      -0.26692361      -0.02007305      -0.48483258
H        2.48120426       1.62674263      10.66760479       31       0.30393413      -0.01816150       0.05312275      -0.25146639      -0.60053122       0.38425627
C       -0.17497679       1.41202890       3.81608587       32       0.11041222      -0.26316067      -0.10980207       0.95673150       0.41550386       1.33581114
C        0.16861397      -1.18805866       6.60335741       33      -0.76776897       0.02199949       0.67404007      -0.22193849       0.09040248      -0.69300902
C       -0.81165540       2.89924230       5.59186427       34      -0.05282402       0.32732953      -0.63230723      -1.19238019      -0.34073460       0.60169560
C        1.38527140      -0.18167027       4.74198785       35       0.10269983       0.21879200      -0.68694737       0.81694388      -0.55124080      -0.59415329
C        6.06620575       0.86818199       1.37965230       36       0.53230862      -0.54626155       0.08532756      -0.00823033      -0.53997231       1.85034084
C       -5.59710013       1.15461055       9.17270546       37       0.05871122       1.06856363       0.55336481       0.70455015       0.84736472       1.79725456
C       -3.48648167       1.86752579      10.06803995       38       0.30032489       0.37939397      -0.58623141      -0.95997334       1.52577293      -0.53066015