13
Lattice="7.26870274 0.0 0.0 3.634351370000001 6.294881225397555 0.0 3.634351370000001 2.0982937417991856 5.934870934989993" Properties=species:S:1:pos:R:3:spacegroup_kinds:I:1:forces:R:3 spacegroup="P 1" unit_cell=conventional occupancy="_JSON {\"0\": {\"Li\": 1}, \"1\": {\"Li\": 1}, \"2\": {\"Li\": 1}, \"3\": {\"Li\": 1}, \"4\": {\"Li\": 1}, \"5\": {\"Li\": 1}, \"6\": {\"P\": 1}, \"7\": {\"S\": 1}, \"8\": {\"S\": 1}, \"9\": {\"S\": 1}, \"10\": {\"S\": 1}, \"11\": {\"S\": 1}, \"12\": {\"Cl\": 1}}" energy=-53.36341857910156 free_energy=-53.36341857910156 stress="-0.0007942130323499441 -2.227072855021106e-07 -1.674027458875571e-07 -2.227072855021106e-07 -0.0007939530769363046 -1.0333474875778847e-07 -1.674027458875571e-07 -1.0333474875778847e-07 -0.0007939275237731636" pbc="T T T"
Li       9.25387995       7.24703237       3.10460814        0       0.00422567      -0.00243430       0.00344769
Li      12.55222827       5.34273008       5.79769826        1      -0.00421102       0.00243302      -0.00344129
Li       9.25387995       5.34273008       5.79769826        2       0.00422507       0.00243877      -0.00344698
Li      12.55222827       7.24703237       3.10460814        3      -0.00421166      -0.00243078       0.00344087
Li      10.90305411       4.39057894       3.10460814        4       0.00000242       0.00487656       0.00344861
Li      10.90305411       8.19918351       5.79769826        5       0.00000212      -0.00486397      -0.00344175
P        7.26870274       4.19658748       2.96743547        6       0.00008564       0.00004580       0.00003596
S        7.26870637       6.13578650       2.28182731        7      -0.00001829      -0.01090899       0.00384739
S        8.94810016       3.22699113       2.28182731        8      -0.00945842       0.00544046       0.00384780
S        5.58931258       3.22699113       2.28182731        9       0.00937778       0.00541256       0.00383024
S        7.26870637       4.19658958       5.02426588       10      -0.00001891      -0.00000964      -0.01156917
S       10.90305411       6.29488123       4.45115320       11      -0.00000164      -0.00000029       0.00000002
Cl       0.00000000       0.00000000       0.00000000       12       0.00000128       0.00000078       0.00000066
