4
Lattice="3.128588 0.0 0.0 -1.5642939988088433 2.709436998432005 0.0 0.0 0.0 5.016955" Properties=species:S:1:pos:R:3:spacegroup_kinds:I:1:forces:R:3 spacegroup="P 1" unit_cell=conventional occupancy="_JSON {\"0\": {\"Al\": 1}, \"1\": {\"Al\": 1}, \"2\": {\"N\": 1}, \"3\": {\"N\": 1}}" energy=-29.673717498779297 free_energy=-29.673717498779297 stress="-0.0022254977375268936 -1.2773430171364453e-06 -3.6571194073076185e-08 -1.2773430171364453e-06 -0.002227417193353176 -1.597635623795668e-08 -3.6571194073076185e-08 -1.597635623795668e-08 -0.005453723482787609" pbc="T T T"
Al       1.56429556       0.90314476       2.50490041        0      -0.00003406       0.00002038       0.00553176
Al      -0.00000156       1.80629224       5.01337791        1       0.00003351      -0.00002023       0.00552432
N        1.56429556       0.90314476       4.41849749        2      -0.00003532       0.00002123      -0.00553054
N       -0.00000156       1.80629224       1.91001999        3       0.00003587      -0.00002120      -0.00552537
