4
Lattice="3.128588 0.0 0.0 -1.5642939988088433 2.709436998432005 0.0 0.0 0.0 5.016955" Properties=species:S:1:pos:R:3:spacegroup_kinds:I:1:forces:R:3 spacegroup="P 1" unit_cell=conventional occupancy="_JSON {\"0\": {\"Al\": 1}, \"1\": {\"Al\": 1}, \"2\": {\"N\": 1}, \"3\": {\"N\": 1}}" energy=-29.673717498779297 free_energy=-29.673717498779297 stress="-0.002225329400971532 -1.3048450000496814e-06 -1.4429838657292748e-08 -1.3048450000496814e-06 -0.0022274116054177284 -6.858935819309409e-08 -1.4429838657292748e-08 -6.858935819309409e-08 -0.005453691817820072" pbc="T T T"
Al       1.56429556       0.90314476       2.50490041        0      -0.00003447       0.00002110       0.00553121
Al      -0.00000156       1.80629224       5.01337791        1       0.00003388      -0.00001931       0.00552409
N        1.56429556       0.90314476       4.41849749        2      -0.00003590       0.00001976      -0.00552966
N       -0.00000156       1.80629224       1.91001999        3       0.00003642      -0.00002143      -0.00552564
