13
Lattice="7.26870274 0.0 0.0 3.634351370000001 6.294881225397555 0.0 3.634351370000001 2.0982937417991856 5.934870934989993" Properties=species:S:1:pos:R:3:spacegroup_kinds:I:1:momenta:R:3:forces:R:3 spacegroup="P 1" unit_cell=conventional occupancy="_JSON {\"0\": {\"Li\": 1}, \"1\": {\"Li\": 1}, \"2\": {\"Li\": 1}, \"3\": {\"Li\": 1}, \"4\": {\"Li\": 1}, \"5\": {\"Li\": 1}, \"6\": {\"P\": 1}, \"7\": {\"S\": 1}, \"8\": {\"S\": 1}, \"9\": {\"S\": 1}, \"10\": {\"S\": 1}, \"11\": {\"S\": 1}, \"12\": {\"Cl\": 1}}" energy=-53.31318283081055 free_energy=-53.31318283081055 stress="-0.0031991617288440466 -0.0013280553976073861 0.0008880834793671966 -0.0013280553976073861 -0.001744532841257751 0.0020821872167289257 0.0008880834793671966 0.0020821872167289257 -0.0005487608723342419" pbc="T T T"
Li       9.28736613       7.27446529       3.08978173        0       0.11960951      -0.34638231      -0.03280254       0.02122419      -0.03143508       0.04649477
Li      12.44440379       5.22353080       5.84434116        1      -0.21235992      -0.62783243       0.08053189       0.11684179      -0.16901994      -0.09848449
Li       9.27448328       5.30611598       5.71880114        2       0.31748235      -0.09366719       0.07973956       0.02919060      -0.04821473       0.25421485
Li      12.56135938       7.23283398       3.09668134        3      -0.01465700       0.01502275      -0.20424034      -0.03642900      -0.12729713       0.16396469
Li      10.86305937       4.36928435       3.05440631        4      -0.16859680      -0.16655094      -0.05217191       0.07374600       0.16454703       0.16967691
Li      10.87620134       8.21643727       5.83698972        5       0.05656759       0.23097939      -0.08962880       0.02809267      -0.01466921      -0.04425253
P        7.27151649       4.18011429       2.97618179        6       0.31925351      -0.02263929      -0.00401680      -0.14784083       0.04188496       0.05797704
S        7.29899859       6.11904528       2.32624548        7       0.54134158       0.47000450       0.21826975       0.02243737       0.20186125      -0.19978717
S        8.93196843       3.18485815       2.29977532        8      -0.19824495      -1.19193029      -0.22797619       0.05737339      -0.00732373      -0.09325586
S        5.57851734       3.25662653       2.24754726        9      -0.34151853       0.51677545      -0.29154336       0.12620109      -0.04550704       0.07756123
S        7.31985969       4.23120327       5.02963098       10       0.02539956       0.69259626       0.50291577      -0.41434950      -0.24424841       0.02306044
S       10.91036793       6.28303446       4.49637352       11       0.21493347      -0.11397837       0.73371936       0.05136798       0.14469753      -0.40317303
Cl      -0.03640698       0.04915281      -0.06620063       12      -0.65921037       0.63760249      -0.71279641       0.07214431       0.13472456       0.04600302
