13
Lattice="7.26870274 0.0 0.0 3.634351370000001 6.294881225397555 0.0 3.634351370000001 2.0982937417991856 5.934870934989993" Properties=species:S:1:pos:R:3:spacegroup_kinds:I:1:momenta:R:3:forces:R:3 spacegroup="P 1" unit_cell=conventional occupancy="_JSON {\"0\": {\"Li\": 1}, \"1\": {\"Li\": 1}, \"2\": {\"Li\": 1}, \"3\": {\"Li\": 1}, \"4\": {\"Li\": 1}, \"5\": {\"Li\": 1}, \"6\": {\"P\": 1}, \"7\": {\"S\": 1}, \"8\": {\"S\": 1}, \"9\": {\"S\": 1}, \"10\": {\"S\": 1}, \"11\": {\"S\": 1}, \"12\": {\"Cl\": 1}}" energy=-53.3634147644043 free_energy=-53.3634147644043 stress="-0.0007942015654407442 -2.3898212475614855e-07 -1.56241412696545e-07 -2.3898212475614855e-07 -0.0007939417264424264 -9.440371684377169e-08 -1.56241412696545e-07 -9.440371684377169e-08 -0.0007939154747873545" pbc="T T T"
Li       9.25387995       7.24703237       3.10460814        0       0.00000000       0.00000000       0.00000000       0.00422544      -0.00243433       0.00344838
Li      12.55222827       5.34273008       5.79769826        1       0.00000000       0.00000000       0.00000000      -0.00421086       0.00243312      -0.00344112
Li       9.25387995       5.34273008       5.79769826        2       0.00000000       0.00000000       0.00000000       0.00422484       0.00243905      -0.00344700
Li      12.55222827       7.24703237       3.10460814        3       0.00000000       0.00000000       0.00000000      -0.00421244      -0.00243100       0.00344141
Li      10.90305411       4.39057894       3.10460814        4       0.00000000       0.00000000       0.00000000       0.00000264       0.00487664       0.00344829
Li      10.90305411       8.19918351       5.79769826        5       0.00000000       0.00000000       0.00000000       0.00000201      -0.00486405      -0.00344188
P        7.26870274       4.19658748       2.96743547        6       0.00000000       0.00000000       0.00000000       0.00008542       0.00004591       0.00003555
S        7.26870637       6.13578650       2.28182731        7       0.00000000       0.00000000       0.00000000      -0.00001845      -0.01090956       0.00384801
S        8.94810016       3.22699113       2.28182731        8       0.00000000       0.00000000       0.00000000      -0.00945770       0.00544020       0.00384692
S        5.58931258       3.22699113       2.28182731        9       0.00000000       0.00000000       0.00000000       0.00937800       0.00541305       0.00382992
S        7.26870637       4.19658958       5.02426588       10       0.00000000       0.00000000       0.00000000      -0.00001880      -0.00000924      -0.01156953
S       10.90305411       6.29488123       4.45115320       11       0.00000000       0.00000000       0.00000000      -0.00000122      -0.00000106       0.00000015
Cl       0.00000000       0.00000000       0.00000000       12       0.00000000       0.00000000       0.00000000       0.00000105       0.00000140       0.00000092
13
Lattice="7.26870274 0.0 0.0 3.634351370000001 6.294881225397555 0.0 3.634351370000001 2.0982937417991856 5.934870934989993" Properties=species:S:1:pos:R:3:spacegroup_kinds:I:1:momenta:R:3:forces:R:3 spacegroup="P 1" unit_cell=conventional occupancy="_JSON {\"0\": {\"Li\": 1}, \"1\": {\"Li\": 1}, \"2\": {\"Li\": 1}, \"3\": {\"Li\": 1}, \"4\": {\"Li\": 1}, \"5\": {\"Li\": 1}, \"6\": {\"P\": 1}, \"7\": {\"S\": 1}, \"8\": {\"S\": 1}, \"9\": {\"S\": 1}, \"10\": {\"S\": 1}, \"11\": {\"S\": 1}, \"12\": {\"Cl\": 1}}" energy=-53.36329650878906 free_energy=-53.36329650878906 stress="-0.0006507930811494589 -5.606446575256996e-05 5.0493206799728796e-05 -5.606446575256996e-05 -0.0008313611033372581 9.896334813674912e-05 5.0493206799728796e-05 9.896334813674912e-05 -0.0007955188630148768" pbc="T T T"
Li       9.25194575       7.25058700       3.10520873        0      -0.12046477       0.15066237       0.00156190       0.00952631      -0.01176544       0.01246877
Li      12.55314270       5.34231163       5.79825318        1       0.06338117      -0.02906958       0.03228045      -0.00864135       0.00530403      -0.00587087
Li       9.25381397       5.34286762       5.79444720        2       0.01986133       0.01425450      -0.16858522       0.00429800       0.00319842       0.00768444
Li      12.55225399       7.24846746       3.10537871        3       0.04169604       0.04471552       0.02269002      -0.00483897      -0.00699030       0.00676152
Li      10.90210096       4.39135251       3.10334580        4      -0.03698815      -0.01669545      -0.09548204       0.00302546       0.00665428       0.00333033
Li      10.90299765       8.20159964       5.79811253        5      -0.00151468       0.12481610       0.02480891      -0.00019225      -0.01669219      -0.00541130
P        7.26857475       4.19674769       2.96788665        6      -0.04108787       0.01696268       0.10589534      -0.00116898      -0.01573381      -0.01803010
S        7.26836718       6.13570794       2.28292101        7      -0.09882109      -0.05970816       0.19011023       0.00089962      -0.00746584      -0.00050328
S        8.94858881       3.22616147       2.28230294        8       0.22525354      -0.13818595       0.07593081      -0.02182329       0.01529013       0.00537465
S        5.58866318       3.22660877       2.28154514        9      -0.09948722       0.02521364      -0.01428015       0.02112850       0.01886159       0.00164747
S        7.26942927       4.19675526       5.02403421       10       0.08911394      -0.02795907       0.09095462      -0.00345094       0.00043744      -0.00338015
S       10.90310176       6.29481079       4.45118215       11      -0.05561542       0.01038213      -0.01345191       0.00064714       0.00983914      -0.00244291
Cl       0.00030133      -0.00062847      -0.00108250       12       0.01467319      -0.11538874      -0.25243295       0.00059076      -0.00093747      -0.00162863
13
Lattice="7.26870274 0.0 0.0 3.634351370000001 6.294881225397555 0.0 3.634351370000001 2.0982937417991856 5.934870934989993" Properties=species:S:1:pos:R:3:spacegroup_kinds:I:1:momenta:R:3:forces:R:3 spacegroup="P 1" unit_cell=conventional occupancy="_JSON {\"0\": {\"Li\": 1}, \"1\": {\"Li\": 1}, \"2\": {\"Li\": 1}, \"3\": {\"Li\": 1}, \"4\": {\"Li\": 1}, \"5\": {\"Li\": 1}, \"6\": {\"P\": 1}, \"7\": {\"S\": 1}, \"8\": {\"S\": 1}, \"9\": {\"S\": 1}, \"10\": {\"S\": 1}, \"11\": {\"S\": 1}, \"12\": {\"Cl\": 1}}" energy=-53.36271286010742 free_energy=-53.36271286010742 stress="-0.0004489269631449133 -0.00014238587755244225 0.00013502927322406322 -0.00014238587755244225 -0.0009277969948016107 0.00026890967274084687 0.00013502927322406322 0.00026890967274084687 -0.0008819138747639954" pbc="T T T"
Li       9.24829642       7.25401239       3.10621915        0      -0.07184748       0.08494111       0.00009132       0.01821873      -0.01880855       0.02390234
Li      12.55582935       5.34220496       5.80101117        1       0.03795839      -0.03976431       0.05557450      -0.02308528       0.01329776      -0.01851614
Li       9.25429045       5.34082053       5.79173368        2      -0.02870453      -0.08575863      -0.11196983       0.01089172       0.00518963       0.01250539
Li      12.55571319       7.24960156       3.10815432        3       0.09822047       0.04778841       0.08266374      -0.01665031      -0.00738028       0.01783694
Li      10.90492552       4.38987467       3.09946833        4       0.16952092      -0.13130038      -0.16812911      -0.00644431       0.02282447       0.01410290
Li      10.90444260       8.20515837       5.80109759        5       0.07158794       0.08923349       0.11436427      -0.00022215      -0.04083281      -0.01955004
P        7.26786248       4.19728745       2.96905349        6      -0.20240448       0.11999636       0.31931974       0.02135630      -0.05921960      -0.04292998
S        7.26680215       6.13451678       2.28515907        7      -0.11570517      -0.28091395       0.33361679       0.00859794       0.01732902      -0.01282916
S        8.94991693       3.22534524       2.28311846        8       0.08796310      -0.17775483       0.06934937      -0.05170017       0.03194074       0.01526457
S        5.58765528       3.22764822       2.28072496        9      -0.16367087       0.23674415      -0.18056109       0.03895658       0.01733016      -0.00105398
S        7.27054377       4.19670450       5.02385987       10       0.18763015       0.05142996      -0.10013974      -0.01078472       0.00096014       0.01343070
S       10.90214438       6.29415495       4.45008238       11      -0.15466255      -0.00648772      -0.08539303       0.01281639       0.02050946       0.00338715
Cl       0.00047581      -0.00050954      -0.00354655       12       0.08411411       0.09184634      -0.32878693      -0.00195070      -0.00314021      -0.00555078
13
Lattice="7.26870274 0.0 0.0 3.634351370000001 6.294881225397555 0.0 3.634351370000001 2.0982937417991856 5.934870934989993" Properties=species:S:1:pos:R:3:spacegroup_kinds:I:1:momenta:R:3:forces:R:3 spacegroup="P 1" unit_cell=conventional occupancy="_JSON {\"0\": {\"Li\": 1}, \"1\": {\"Li\": 1}, \"2\": {\"Li\": 1}, \"3\": {\"Li\": 1}, \"4\": {\"Li\": 1}, \"5\": {\"Li\": 1}, \"6\": {\"P\": 1}, \"7\": {\"S\": 1}, \"8\": {\"S\": 1}, \"9\": {\"S\": 1}, \"10\": {\"S\": 1}, \"11\": {\"S\": 1}, \"12\": {\"Cl\": 1}}" energy=-53.361305236816406 free_energy=-53.361305236816406 stress="-0.0003464239416643977 -0.0002381869126111269 0.00017989129992201924 -0.0002381869126111269 -0.001148661132901907 0.0004874803707934916 0.00017989129992201924 0.0004874803707934916 -0.0010733657982200384" pbc="T T T"
Li       9.24509794       7.25915926       3.10806519        0      -0.02857243       0.11146224       0.08934120       0.02506531      -0.02841674       0.03659995
Li      12.55725096       5.34232189       5.80159860        1       0.04846241       0.00365196       0.02291309      -0.03215964       0.01717830      -0.01942239
Li       9.25201426       5.33700975       5.78577529        2      -0.06954342      -0.08054239      -0.18393741       0.02945240       0.01329826       0.02386100
Li      12.55782158       7.25102898       3.11038542        3       0.09973647       0.06561570       0.05925207      -0.02172010      -0.00911243       0.02544618
Li      10.91024499       4.38670016       3.09553770        4       0.11171760      -0.06526010      -0.03731686      -0.02861623       0.04603412       0.03129685
Li      10.90489407       8.20627320       5.80768678        5      -0.00480338       0.02132021       0.25033804      -0.00121589      -0.05423335      -0.04112808
P        7.26618057       4.19756842       2.97104800        6      -0.24717197       0.01175643       0.12700104       0.06529222      -0.11551981      -0.08234907
S        7.26711657       6.13158249       2.28755511        7       0.16257230      -0.50611424       0.39683937       0.00559980       0.06732143      -0.02016699
S        8.95020304       3.22408940       2.28416026        8       0.04312131      -0.06784893       0.11836971      -0.07694947       0.04881728       0.02134331
S        5.58644905       3.22924429       2.27938885        9      -0.22159440       0.18871139      -0.30591605       0.05201671       0.00972442      -0.01005515
S        7.27231661       4.19694832       5.02344137       10       0.29854853      -0.05110866      -0.00123220      -0.03369367      -0.01020040       0.04652356
S       10.90112888       6.29493097       4.45003458       11      -0.10135967       0.20352700       0.10111822       0.01957954       0.01960313      -0.00170768
Cl       0.00108244       0.00053760      -0.00704602       12      -0.09111334       0.16482940      -0.63677025      -0.00265098      -0.00449418      -0.01024156
13
Lattice="7.26870274 0.0 0.0 3.634351370000001 6.294881225397555 0.0 3.634351370000001 2.0982937417991856 5.934870934989993" Properties=species:S:1:pos:R:3:spacegroup_kinds:I:1:momenta:R:3:forces:R:3 spacegroup="P 1" unit_cell=conventional occupancy="_JSON {\"0\": {\"Li\": 1}, \"1\": {\"Li\": 1}, \"2\": {\"Li\": 1}, \"3\": {\"Li\": 1}, \"4\": {\"Li\": 1}, \"5\": {\"Li\": 1}, \"6\": {\"P\": 1}, \"7\": {\"S\": 1}, \"8\": {\"S\": 1}, \"9\": {\"S\": 1}, \"10\": {\"S\": 1}, \"11\": {\"S\": 1}, \"12\": {\"Cl\": 1}}" energy=-53.359130859375 free_energy=-53.359130859375 stress="-0.00016541047079954296 -0.0003056905698031187 0.00024383720301557332 -0.0003056905698031187 -0.0014740353217348456 0.0008245720528066158 0.00024383720301557332 0.0008245720528066158 -0.0012653353624045849" pbc="T T T"
Li       9.24475469       7.26533788       3.11215097        0       0.00755971       0.27451943       0.13921848       0.02005211      -0.03567427       0.04240930
Li      12.55575106       5.34257708       5.80398665        1      -0.09254594      -0.01396404       0.08767704      -0.02951267       0.01402687      -0.02317704
Li       9.24960482       5.33477862       5.77769688        2      -0.05572481      -0.05408253      -0.25342829       0.04055775       0.01808932       0.04210764
Li      12.55920515       7.25402113       3.11413797        3       0.00251742       0.14460493       0.12614362      -0.01866014      -0.01677196       0.03298837
Li      10.91308127       4.38328149       3.09516506        4       0.08309428      -0.11302843       0.00127693      -0.04105089       0.06265347       0.04705209
Li      10.90603501       8.20844961       5.81576555        5       0.11237862       0.07945222       0.23018441      -0.00091000      -0.06640753      -0.06280978
P        7.26461343       4.19716093       2.97190378        6      -0.12972514      -0.12557114       0.04224204       0.09108604      -0.17988947      -0.10009456
S        7.26911382       6.12748542       2.29090794        7       0.21715301      -0.57820493       0.39381218      -0.00133580       0.13768089      -0.03105389
S        8.95093562       3.22283755       2.28557985        8      -0.01721211      -0.17490019       0.24207987      -0.09786605       0.05806393       0.02254107
S        5.58454441       3.23040568       2.27572613        9      -0.20727278       0.15137345      -0.58764978       0.07470719       0.01080124      -0.00816907
S        7.27477877       4.19714992       5.02284175       10       0.29152939      -0.04730343      -0.13381717      -0.06711102      -0.02213036       0.06769270
S       10.89985068       6.29627894       4.45195136       11      -0.13569641       0.15954240       0.36448253       0.03282848       0.02347226      -0.01225149
Cl       0.00043669       0.00204601      -0.01198597       12      -0.07605526       0.29756227      -0.65222188      -0.00278504      -0.00391436      -0.01723530
13
Lattice="7.26870274 0.0 0.0 3.634351370000001 6.294881225397555 0.0 3.634351370000001 2.0982937417991856 5.934870934989993" Properties=species:S:1:pos:R:3:spacegroup_kinds:I:1:momenta:R:3:forces:R:3 spacegroup="P 1" unit_cell=conventional occupancy="_JSON {\"0\": {\"Li\": 1}, \"1\": {\"Li\": 1}, \"2\": {\"Li\": 1}, \"3\": {\"Li\": 1}, \"4\": {\"Li\": 1}, \"5\": {\"Li\": 1}, \"6\": {\"P\": 1}, \"7\": {\"S\": 1}, \"8\": {\"S\": 1}, \"9\": {\"S\": 1}, \"10\": {\"S\": 1}, \"11\": {\"S\": 1}, \"12\": {\"Cl\": 1}}" energy=-53.35604476928711 free_energy=-53.35604476928711 stress="-0.0001721090084174648 -0.0004613818891812116 0.0003262565878685564 -0.0004613818891812116 -0.001941915601491928 0.0011451393365859985 0.0003262565878685564 0.0011451393365859985 -0.0015000218991190195" pbc="T T T"
Li       9.24505020       7.27418195       3.11585783        0       0.03563682       0.25117473       0.07021733       0.01303889      -0.05019655       0.04928507
Li      12.55168631       5.34078949       5.80814068        1      -0.05956955      -0.01693666       0.14917544      -0.02039545       0.00518598      -0.03279961
Li       9.24706564       5.33254478       5.76759236        2      -0.06990085      -0.04625833      -0.29534642       0.05035129       0.02299335       0.06417321
Li      12.55901590       7.25731144       3.11688636        3       0.05734165       0.07801526       0.03399777      -0.01422033      -0.02893081       0.03958722
Li      10.91250646       4.37939180       3.09473573        4      -0.05354672      -0.08228759      -0.05353196      -0.04125401       0.08085434       0.06307910
Li      10.90939112       8.20890603       5.82234861        5       0.07697730       0.01277711       0.18511529       0.00080510      -0.06787964      -0.07270597
P        7.26285166       4.19640603       2.97219550        6      -0.25568724      -0.13630717       0.00354613       0.11635034      -0.22840239      -0.10178359
S        7.27053090       6.12311433       2.29518840        7       0.03741513      -0.58081174       0.72282527      -0.00310288       0.21854836      -0.05059575
S        8.95070858       3.22168723       2.28732022        8      -0.05955009      -0.11232088       0.27413101      -0.10344557       0.05697085       0.01582411
S        5.58407444       3.23223186       2.27025833        9      -0.12665616       0.14607594      -0.68812376       0.07267290       0.00675393      -0.00711786
S        7.27861300       4.19675866       5.02172218       10       0.67403044      -0.01172803      -0.20530397      -0.11204143      -0.03702024       0.09230989
S       10.89867593       6.29805497       4.45494513       11      -0.11186854       0.25940347       0.45343879       0.04430196       0.02169405      -0.03544706
Cl      -0.00038441       0.00388467      -0.01580912       12      -0.14462220       0.23920391      -0.65014092      -0.00306079      -0.00057120      -0.02380871
13
Lattice="7.26870274 0.0 0.0 3.634351370000001 6.294881225397555 0.0 3.634351370000001 2.0982937417991856 5.934870934989993" Properties=species:S:1:pos:R:3:spacegroup_kinds:I:1:momenta:R:3:forces:R:3 spacegroup="P 1" unit_cell=conventional occupancy="_JSON {\"0\": {\"Li\": 1}, \"1\": {\"Li\": 1}, \"2\": {\"Li\": 1}, \"3\": {\"Li\": 1}, \"4\": {\"Li\": 1}, \"5\": {\"Li\": 1}, \"6\": {\"P\": 1}, \"7\": {\"S\": 1}, \"8\": {\"S\": 1}, \"9\": {\"S\": 1}, \"10\": {\"S\": 1}, \"11\": {\"S\": 1}, \"12\": {\"Cl\": 1}}" energy=-53.351280212402344 free_energy=-53.351280212402344 stress="-0.0002749109407886863 -0.000504597439430654 0.0004713798116426915 -0.000504597439430654 -0.0026406256947666407 0.0014849674189463258 0.0004713798116426915 0.0014849674189463258 -0.0017374609597027302" pbc="T T T"
Li       9.24991709       7.28089398       3.11677182        0       0.15613165       0.22311022       0.04022207       0.00170524      -0.06303116       0.04940227
Li      12.54956595       5.34014141       5.81150765        1      -0.09051112      -0.07512735       0.11692986      -0.00942422      -0.00451372      -0.03525896
Li       9.24384990       5.33033013       5.75710318        2      -0.11165802      -0.04239951      -0.34350735       0.06435932       0.02851142       0.08771548
Li      12.56158044       7.25794284       3.11957830        3       0.07791461      -0.04166707       0.13819752      -0.01819970      -0.02891636       0.04953167
Li      10.91182776       4.37692263       3.09308701        4       0.03618852      -0.02216822      -0.03680410      -0.03964437       0.09425218       0.07741559
Li      10.91055341       8.20737866       5.82818610        5      -0.03178559      -0.07584162       0.14908306       0.00241696      -0.05976858      -0.07871296
P        7.26095989       4.19665973       2.97225376        6      -0.17706568       0.12077558       0.01966654       0.12493354      -0.31359431      -0.09148888
S        7.27077749       6.11791500       2.30030301        7       0.12757440      -0.74138647       0.46434962       0.00695944       0.33179006      -0.08696659
S        8.94953714       3.22156233       2.29005428        8      -0.30821269      -0.05027244       0.34834948      -0.09544648       0.04442694      -0.00062105
S        5.58339518       3.23342080       2.26466114        9      -0.08761599       0.12714945      -0.76479076       0.07473002       0.00812989      -0.00139093
S        7.28316913       4.19643531       5.02037932       10       0.60798779       0.01957028      -0.04315766      -0.16217035      -0.05630792       0.12094911
S       10.89903333       6.29917809       4.45890619       11       0.06873642       0.12933187       0.57785778       0.05321171       0.01878475      -0.06480178
Cl      -0.00218403       0.00668540      -0.02049442       12      -0.26768429       0.42892528      -0.66639608      -0.00343115       0.00023684      -0.02577297
13
Lattice="7.26870274 0.0 0.0 3.634351370000001 6.294881225397555 0.0 3.634351370000001 2.0982937417991856 5.934870934989993" Properties=species:S:1:pos:R:3:spacegroup_kinds:I:1:momenta:R:3:forces:R:3 spacegroup="P 1" unit_cell=conventional occupancy="_JSON {\"0\": {\"Li\": 1}, \"1\": {\"Li\": 1}, \"2\": {\"Li\": 1}, \"3\": {\"Li\": 1}, \"4\": {\"Li\": 1}, \"5\": {\"Li\": 1}, \"6\": {\"P\": 1}, \"7\": {\"S\": 1}, \"8\": {\"S\": 1}, \"9\": {\"S\": 1}, \"10\": {\"S\": 1}, \"11\": {\"S\": 1}, \"12\": {\"Cl\": 1}}" energy=-53.34623718261719 free_energy=-53.34623718261719 stress="-0.0004741035227198154 -0.0005306703969836235 0.0006143259815871716 -0.0005306703969836235 -0.00318833882920444 0.0017289912793785334 0.0006143259815871716 0.0017289912793785334 -0.0018988314550369978" pbc="T T T"
Li       9.25438125       7.28467801       3.11677298        0       0.09806425       0.09688833      -0.02448704      -0.00689976      -0.06682079       0.04638277
Li      12.54352205       5.33435602       5.81321932        1      -0.21779309      -0.23015631       0.00837268       0.00382693      -0.01945740      -0.02907307
Li       9.24138190       5.32743131       5.74722633        2      -0.02948710      -0.10659690      -0.22408552       0.07863493       0.03330199       0.11303373
Li      12.56434128       7.25721161       3.12405123        3       0.01262381      -0.03443986       0.15056693      -0.01641507      -0.02469300       0.05549190
Li      10.91111283       4.37647633       3.09267238        4       0.01453885      -0.03800433      -0.00183478      -0.03909813       0.09419931       0.08154682
Li      10.90715129       8.20338611       5.83292355        5      -0.12659561      -0.16882390       0.09502490       0.00166937      -0.03706624      -0.08141442
P        7.25986523       4.19677416       2.97243999        6      -0.13305363      -0.19503617       0.05552460       0.11641266      -0.38509142      -0.07931821
S        7.27211894       6.11341868       2.30395417        7       0.26983409      -0.39499540       0.36452823       0.01062574       0.42805460      -0.11728321
S        8.94726595       3.22050615       2.29252416        8      -0.28777943      -0.13121156       0.23525098      -0.07118028       0.03029357      -0.01724340
S        5.58300055       3.23446922       2.25898090        9      -0.07231985       0.18534564      -0.61292480       0.07800628       0.01332876       0.01483286
S        7.28807754       4.19834842       5.01982461       10       0.66214742       0.39337012      -0.07369642      -0.21401800      -0.08703247       0.13742563
S       10.89917746       6.29992735       4.46319313       11      -0.02954716       0.12517867       0.58144695       0.05766634       0.01521321      -0.09663346
Cl      -0.00336942       0.01027558      -0.02457183       12      -0.16063254       0.49848168      -0.55368674       0.00076893       0.00576980      -0.02774788
13
Lattice="7.26870274 0.0 0.0 3.634351370000001 6.294881225397555 0.0 3.634351370000001 2.0982937417991856 5.934870934989993" Properties=species:S:1:pos:R:3:spacegroup_kinds:I:1:momenta:R:3:forces:R:3 spacegroup="P 1" unit_cell=conventional occupancy="_JSON {\"0\": {\"Li\": 1}, \"1\": {\"Li\": 1}, \"2\": {\"Li\": 1}, \"3\": {\"Li\": 1}, \"4\": {\"Li\": 1}, \"5\": {\"Li\": 1}, \"6\": {\"P\": 1}, \"7\": {\"S\": 1}, \"8\": {\"S\": 1}, \"9\": {\"S\": 1}, \"10\": {\"S\": 1}, \"11\": {\"S\": 1}, \"12\": {\"Cl\": 1}}" energy=-53.341793060302734 free_energy=-53.341793060302734 stress="-0.0008314528968185186 -0.0006604432128369808 0.0006949680973775685 -0.0006604432128369808 -0.003441259264945984 0.0018191675189882517 0.0006949680973775685 0.0018191675189882517 -0.002002038760110736" pbc="T T T"
Li       9.25675620       7.28719554       3.11482607        0       0.06921310       0.05800509      -0.09927752      -0.00830504      -0.07102664       0.04748590
Li      12.53418297       5.32534777       5.81372736        1      -0.32333017      -0.21885098       0.07060982       0.02107340      -0.03847745      -0.01942680
Li       9.23932402       5.32252013       5.74034415        2      -0.03644222      -0.11473856      -0.18915863       0.10124631       0.04137481       0.13103996
Li      12.56319680       7.25200269       3.12929470        3      -0.04409077      -0.19571284       0.05324504       0.00117239      -0.00721585       0.04673499
Li      10.90834503       4.37559616       3.09036909        4      -0.17467978      -0.00881329      -0.08550130      -0.03340204       0.09954605       0.08909655
Li      10.90110774       8.19945307       5.83480280        5      -0.20955003      -0.11688189       0.05474015       0.00068642      -0.01196186      -0.07293432
P        7.26036622       4.19571452       2.97292883        6       0.14322590      -0.06242164       0.12682738       0.10399985      -0.39670128      -0.07491429
S        7.27373924       6.11076023       2.30739959        7       0.22277133      -0.35573401       0.48347118       0.00788588       0.47835881      -0.14285566
S        8.94619517       3.21954537       2.29453463        8      -0.06187144      -0.12380621       0.22845600      -0.05283387      -0.00038342      -0.03372705
S        5.58298367       3.23663194       2.25536058        9       0.09887179       0.27150195      -0.36182185       0.07855660       0.00948427       0.02710130
S        7.29353099       4.20171067       5.01955270       10       0.80041299       0.44411877      -0.04980469      -0.26679176      -0.12405244       0.15278089
S       10.89934878       6.29986169       4.46683391       11       0.13437427      -0.13899155       0.39409334       0.03922936       0.00549618      -0.12389883
Cl      -0.00566138       0.01381321      -0.02893964       12      -0.61890498       0.56232516      -0.62587895       0.00748245       0.01555881      -0.02648267
13
Lattice="7.26870274 0.0 0.0 3.634351370000001 6.294881225397555 0.0 3.634351370000001 2.0982937417991856 5.934870934989993" Properties=species:S:1:pos:R:3:spacegroup_kinds:I:1:momenta:R:3:forces:R:3 spacegroup="P 1" unit_cell=conventional occupancy="_JSON {\"0\": {\"Li\": 1}, \"1\": {\"Li\": 1}, \"2\": {\"Li\": 1}, \"3\": {\"Li\": 1}, \"4\": {\"Li\": 1}, \"5\": {\"Li\": 1}, \"6\": {\"P\": 1}, \"7\": {\"S\": 1}, \"8\": {\"S\": 1}, \"9\": {\"S\": 1}, \"10\": {\"S\": 1}, \"11\": {\"S\": 1}, \"12\": {\"Cl\": 1}}" energy=-53.336326599121094 free_energy=-53.336326599121094 stress="-0.0012296386994421482 -0.0008545079617761075 0.0006674849428236485 -0.0008545079617761075 -0.0036528732161968946 0.0018689181888476014 0.0006674849428236485 0.0018689181888476014 -0.001975476974621415" pbc="T T T"
Li       9.25922463       7.28837622       3.11125123        0       0.11534019       0.09925573      -0.07847315      -0.00458332      -0.07446615       0.05004630
Li      12.51991816       5.31613891       5.81717993        1      -0.49350117      -0.28274743       0.12956149       0.05270360      -0.06607250      -0.01860680
Li       9.23777318       5.31940056       5.73345954        2      -0.02028566      -0.10127994      -0.21778565       0.12107941       0.04769203       0.15238601
Li      12.56284821       7.24704483       3.12819331        3      -0.00973557      -0.12652412      -0.04922317       0.00427623      -0.00151545       0.05084688
Li      10.90051434       4.37573357       3.08564658        4      -0.21480210       0.11255772      -0.15187645      -0.00716830       0.10614477       0.09719203
Li      10.89415051       8.19533861       5.83555297        5      -0.20573860      -0.12160070       0.04110013       0.00217203       0.01370382      -0.06399105
P        7.26185501       4.19440995       2.97388285        6       0.29200750      -0.13016007       0.11446615       0.07410946      -0.39020723      -0.05529411
S        7.27518920       6.10872738       2.31055826        7       0.29002034      -0.18507369       0.42352273       0.01428319       0.50847840      -0.16942179
S        8.94573483       3.21831423       2.29658233        8      -0.16055480      -0.19075851       0.36139537      -0.03846380      -0.02866354      -0.05192972
S        5.58384897       3.23877581       2.25300323        9       0.15817182       0.24466832      -0.36092424       0.07352544       0.00716665       0.03619969
S        7.29958481       4.20552497       5.02040766       10       0.84224543       0.50641831       0.09440649      -0.32238573      -0.15775734       0.15536752
S       10.90112778       6.29854181       4.47019060       11       0.15074042      -0.23714457       0.51137285       0.01264515       0.00882891      -0.16355425
Cl      -0.01018431       0.01755114      -0.03387081       12      -0.74390781       0.41238895      -0.81754256       0.01780660       0.02666753      -0.01924072
13