13
Lattice="7.26870274 0.0 0.0 3.634351370000001 6.294881225397555 0.0 3.634351370000001 2.0982937417991856 5.934870934989993" Properties=species:S:1:pos:R:3:spacegroup_kinds:I:1:forces:R:3 spacegroup="P 1" unit_cell=conventional occupancy="_JSON {\"0\": {\"Li\": 1}, \"1\": {\"Li\": 1}, \"2\": {\"Li\": 1}, \"3\": {\"Li\": 1}, \"4\": {\"Li\": 1}, \"5\": {\"Li\": 1}, \"6\": {\"P\": 1}, \"7\": {\"S\": 1}, \"8\": {\"S\": 1}, \"9\": {\"S\": 1}, \"10\": {\"S\": 1}, \"11\": {\"S\": 1}, \"12\": {\"Cl\": 1}}" energy=-53.3634147644043 free_energy=-53.3634147644043 stress="-0.0007942015654407442 -2.3898212475614855e-07 -1.56241412696545e-07 -2.3898212475614855e-07 -0.0007939417264424264 -9.440371684377169e-08 -1.56241412696545e-07 -9.440371684377169e-08 -0.0007939154747873545" pbc="T T T"
Li       9.25387995       7.24703237       3.10460814        0       0.00422544      -0.00243433       0.00344838
Li      12.55222827       5.34273008       5.79769826        1      -0.00421086       0.00243312      -0.00344112
Li       9.25387995       5.34273008       5.79769826        2       0.00422484       0.00243905      -0.00344700
Li      12.55222827       7.24703237       3.10460814        3      -0.00421244      -0.00243100       0.00344141
Li      10.90305411       4.39057894       3.10460814        4       0.00000264       0.00487664       0.00344829
Li      10.90305411       8.19918351       5.79769826        5       0.00000201      -0.00486405      -0.00344188
P        7.26870274       4.19658748       2.96743547        6       0.00008542       0.00004591       0.00003555
S        7.26870637       6.13578650       2.28182731        7      -0.00001845      -0.01090956       0.00384801
S        8.94810016       3.22699113       2.28182731        8      -0.00945770       0.00544020       0.00384692
S        5.58931258       3.22699113       2.28182731        9       0.00937800       0.00541305       0.00382992
S        7.26870637       4.19658958       5.02426588       10      -0.00001880      -0.00000924      -0.01156953
S       10.90305411       6.29488123       4.45115320       11      -0.00000122      -0.00000106       0.00000015
Cl       0.00000000       0.00000000       0.00000000       12       0.00000105       0.00000140       0.00000092
