56
Lattice="10.7619164 0.0 0.0 -9.665296305262016 4.732958053065482 0.0 -0.5483100463354086 -2.3664790220718444 10.484177494289693" Properties=species:S:1:pos:R:3:spacegroup_kinds:I:1:forces:R:3 spacegroup="P 1" unit_cell=conventional occupancy="_JSON {\"0\": {\"H\": 1}, \"1\": {\"H\": 1}, \"2\": {\"H\": 1}, \"3\": {\"H\": 1}, \"4\": {\"H\": 1}, \"5\": {\"H\": 1}, \"6\": {\"H\": 1}, \"7\": {\"H\": 1}, \"8\": {\"H\": 1}, \"9\": {\"H\": 1}, \"10\": {\"H\": 1}, \"11\": {\"H\": 1}, \"12\": {\"H\": 1}, \"13\": {\"H\": 1}, \"14\": {\"H\": 1}, \"15\": {\"H\": 1}, \"16\": {\"H\": 1}, \"17\": {\"H\": 1}, \"18\": {\"H\": 1}, \"19\": {\"H\": 1}, \"20\": {\"H\": 1}, \"21\": {\"H\": 1}, \"22\": {\"H\": 1}, \"23\": {\"H\": 1}, \"24\": {\"H\": 1}, \"25\": {\"H\": 1}, \"26\": {\"H\": 1}, \"27\": {\"H\": 1}, \"28\": {\"H\": 1}, \"29\": {\"H\": 1}, \"30\": {\"H\": 1}, \"31\": {\"H\": 1}, \"32\": {\"C\": 1}, \"33\": {\"C\": 1}, \"34\": {\"C\": 1}, \"35\": {\"C\": 1}, \"36\": {\"C\": 1}, \"37\": {\"C\": 1}, \"38\": {\"C\": 1}, \"39\": {\"C\": 1}, \"40\": {\"C\": 1}, \"41\": {\"C\": 1}, \"42\": {\"C\": 1}, \"43\": {\"C\": 1}, \"44\": {\"C\": 1}, \"45\": {\"C\": 1}, \"46\": {\"C\": 1}, \"47\": {\"C\": 1}, \"48\": {\"O\": 1}, \"49\": {\"O\": 1}, \"50\": {\"O\": 1}, \"51\": {\"O\": 1}, \"52\": {\"O\": 1}, \"53\": {\"O\": 1}, \"54\": {\"O\": 1}, \"55\": {\"O\": 1}}" energy=-315.21038818359375 free_energy=-315.21038818359375 stress="0.0014446187997236848 -0.0005629163351841271 8.588792610453311e-08 -0.0005629163351841271 -0.0008545595337636769 -6.462522605943377e-08 8.588792610453311e-08 -6.462522605943377e-08 0.0015755882486701012" pbc="T T T"
H       -0.01146674       2.27735379       1.83228362        0       0.05954239      -0.00327668       0.06233916
H        0.46354043      -0.32622645       8.65189388        1      -0.05491760       0.02317611      -0.06235568
H        7.11783645      -0.62125595       5.76730111        2       0.06303596      -0.00415077      -0.05874490
H        3.54784284       0.20590514       4.71687607        3      -0.05845445       0.02398630       0.05874098
H        5.94073500       0.08912525       3.40980510        4      -0.05953978       0.00327664      -0.06233691
H        4.91741780       0.32622654       7.07437241        5       0.05491410      -0.02316935       0.06236552
H       -1.73687825       0.62125611       9.95896513        6      -0.06303783       0.00415839       0.05874541
H        2.38142539       2.16057390       0.52521270        7       0.05845522      -0.02398732      -0.05874325
H       -1.38551754       1.18149075       2.11598468        8      -0.01113765       0.08955137       0.00594896
H       -8.44966009       2.81824229       8.36819218        9       0.04931351       0.07553630      -0.00592634
H       -2.58205883       2.70548917       6.85853646       10       0.02489236       0.08117906       0.03102906
H       -6.70482302       3.66072964       3.62563947       11       0.01337810       0.08383597      -0.03101388
H       -3.44713062       1.18498829       3.12610408       12       0.01115895      -0.08955071      -0.00594390
H       -6.59659445       1.91471577       7.35807408       13      -0.04930696      -0.07554528       0.00593402
H       -1.70227922       2.02746897       8.86772962       14      -0.02490144      -0.08118930      -0.03099537
H       -7.79312147       3.43870742       1.61644925       15      -0.01337447      -0.08383935       0.03100593
H       -0.77623956       0.71965044       4.36329758       16      -0.01323409      -0.01213583       0.02308604
H        1.56195590       2.67141835       6.12088029       17       0.00653425      -0.01672818      -0.02309665
H       -0.46326720       1.89389614       6.16073603       18       0.01919641      -0.01968119       0.01018677
H        0.70065483      -0.86930481       4.32344242       19      -0.02583236      -0.00920624      -0.01018307
H        6.70550784       1.64682867       0.87879113       20       0.01323248       0.01213481      -0.02308436
H       -5.84629404       2.06153966       9.60538593       21      -0.00653633       0.01672619       0.02309501
H        5.84422538      -1.89389610       9.56553024       22      -0.01918966       0.01966911      -0.01017776
H       -5.53330302       3.23578383       0.91864626       23       0.02584150       0.00921594       0.01018971
H        0.25118892       0.51320652       1.94904363       24      -0.01400568      -0.01703783      -0.02868846
H       -0.54820847      -1.79509607       8.53513265       25       0.00518255      -0.02145587       0.02868170
H       -2.80824660       2.46883416       5.11321221       26      -0.03240796      -0.01272107       0.00990957
H       -6.60574339       3.34870703       5.37096439       27       0.02347742      -0.02566874      -0.00992407
H       -5.08383702       1.85327246       3.29304511       28       0.01400435       0.01703785       0.02868888
H       -4.83274951       1.79509621       7.19113351       29      -0.00520887       0.02144472      -0.02866513
H       -0.92778153       4.63060281       0.12887635       30       0.03240958       0.01272172      -0.00991128
H        2.32140525       1.38425108      10.35530181       31      -0.02347679       0.02567134       0.00991902
C       -0.12855712       1.44666454       3.84724418       32      -0.06474315      -0.02297533       0.02711138
C        0.20337421      -1.12376650       6.63693319       33       0.04808354      -0.04911445      -0.02706039
C       -0.77313051       2.84277401       5.69386795       34       0.01803470      -0.04222281       0.05795918
C        1.39625478      -0.15339356       4.79030935       35      -0.03474209      -0.02991122      -0.05791837
C        6.05782526       0.91981440       1.39484461       36       0.06475730       0.02297460      -0.02710742
C       -5.58433219       1.12376664       9.08933300       37      -0.04809076       0.04911378       0.02707765
C       -3.51120742       1.89018399      10.03239815       38      -0.01806861       0.04223216      -0.05796679
C        4.53301352       2.51987247       0.45177956       39       0.03474680       0.02992395       0.05790986
C       -0.32629465       1.35816528       2.34320610       40       0.01374693       0.00373574      -0.01267695
C        0.34204072      -1.29021282       8.14097361       41      -0.01071825       0.00946966       0.01263756
C       -2.26788799       3.05478921       5.86652618       42      -0.01084459       0.00948864      -0.01264033
C        2.83194263      -0.62035934       4.61765399       43       0.01386646       0.00376308       0.01261149
C        6.25556282       1.00831378       2.89888265       44      -0.01376763      -0.00373755       0.01266707
C       -5.72299919       1.29021260       7.58529264       45       0.01074431      -0.00945136      -0.01267766
C       -2.01645026       1.67816876       9.85974051       46       0.01086682      -0.00949199       0.01260940
C        3.09732574       2.98683831       0.62443476       47      -0.01388549      -0.00375992      -0.01259707
O       -0.42617555       2.75832690       4.28195553       48      -0.00160956      -0.01560150      -0.00606922
O        1.04750942      -0.07664206       6.20222132       49      -0.00535167      -0.01474549       0.00606137
O       -1.17299329      -0.80891945       6.27987374       50      -0.00940078      -0.01381648      -0.00193651
O        1.24603231       1.12411994       4.20430307       51       0.00225557      -0.01656754       0.00193422
O       -3.30985250       4.34111018       0.96013316       52       0.00160928       0.01560232       0.00605952
O        4.33344870       0.07664206       9.52404499       53       0.00534999       0.01474252      -0.00606711
O       -4.20796491       0.80891948       9.44639257       54       0.00941903       0.01382580       0.00193586
O        4.68323599       1.24235916       1.03778562       55      -0.00226517       0.01654594      -0.00193100
