4
Lattice="3.128588 0.0 0.0 -1.5642939988088433 2.709436998432005 0.0 0.0 0.0 5.016955" Properties=species:S:1:pos:R:3:spacegroup_kinds:I:1:momenta:R:3:forces:R:3 spacegroup="P 1" unit_cell=conventional occupancy="_JSON {\"0\": {\"Al\": 1}, \"1\": {\"Al\": 1}, \"2\": {\"N\": 1}, \"3\": {\"N\": 1}}" energy=-29.62374496459961 free_energy=-29.62374496459961 stress="0.004300433676689863 -0.008672601543366909 0.0028819057624787092 -0.008672601543366909 -0.006943627260625362 -0.0044345371425151825 0.0028819057624787092 -0.0044345371425151825 -0.014839092269539833" pbc="T T T"
Al       1.54321203       0.89379625       2.53645979        0      -0.00705450      -0.41529076       0.79444899      -0.25249872       0.39302954      -0.87834334
Al       0.03580902       1.79893948       4.98957809        1       0.09337938      -0.29525187      -0.61191835      -0.16601098       0.14058217       0.62745154
N        1.59619757       0.90645093       4.40111845        2      -0.02189826       1.09350767       0.27120864      -0.08899814      -0.09593835       0.34911263
N       -0.05911260       1.83464211       1.91219258        3      -0.06442661      -0.38296510      -0.45373924       0.50750804      -0.43767345      -0.09822105
