4
Lattice="3.128588 0.0 0.0 -1.5642939988088433 2.709436998432005 0.0 0.0 0.0 5.016955" Properties=species:S:1:pos:R:3:spacegroup_kinds:I:1:momenta:R:3:forces:R:3 spacegroup="P 1" unit_cell=conventional occupancy="_JSON {\"0\": {\"Al\": 1}, \"1\": {\"Al\": 1}, \"2\": {\"N\": 1}, \"3\": {\"N\": 1}}" energy=-29.673717498779297 free_energy=-29.673717498779297 stress="-0.0022254684008657932 -1.3887676004742389e-06 -3.598822573280813e-08 -1.3887676004742389e-06 -0.0022274814546108246 3.623758626503104e-09 -3.598822573280813e-08 3.623758626503104e-09 -0.005453689489513636" pbc="T T T"
Al       1.56429556       0.90314476       2.50490041        0       0.68448204       0.53670047       0.91071479      -0.00003502       0.00001980       0.00553134
Al      -0.00000156       1.80629224       5.01337791        1       0.31075784       0.39520501      -1.87833745       0.00003433      -0.00002043       0.00552447
N        1.56429556       0.90314476       4.41849749        2      -0.23293981      -0.79739853      -0.40745139      -0.00003613       0.00002116      -0.00553057
N       -0.00000156       1.80629224       1.91001999        3      -0.76230006      -0.13450696       1.37507406       0.00003663      -0.00002030      -0.00552500
4
Lattice="3.128588 0.0 0.0 -1.5642939988088433 2.709436998432005 0.0 0.0 0.0 5.016955" Properties=species:S:1:pos:R:3:spacegroup_kinds:I:1:momenta:R:3:forces:R:3 spacegroup="P 1" unit_cell=conventional occupancy="_JSON {\"0\": {\"Al\": 1}, \"1\": {\"Al\": 1}, \"2\": {\"N\": 1}, \"3\": {\"N\": 1}}" energy=-29.43359375 free_energy=-29.43359375 stress="-0.013773573562502861 -0.016446391120553017 0.012948773801326752 -0.016446391120553017 -0.02396881766617298 0.009969756007194519 0.012948773801326752 0.009969756007194519 -0.01205950416624546" pbc="T T T"
Al       1.60246141       0.92231283       2.54150848        0       0.57498205      -0.13491999       1.02882480      -1.31301260      -0.49033436      -0.87831342
Al       0.00328788       1.81111139       4.94718774        1      -0.44725825       0.00118037      -1.07867322      -0.30154097      -0.59423321       1.18011868
N        1.53678589       0.85870780       4.38099594        2       0.14052050      -0.46066713       0.20203865       0.28490761       0.67984581       1.25553596
N       -0.05228245       1.80432671       2.00436660        3      -0.26824432       0.59440675      -0.15219027       1.32964611       0.40472153      -1.55734110
4
Lattice="3.128588 0.0 0.0 -1.5642939988088433 2.709436998432005 0.0 0.0 0.0 5.016955" Properties=species:S:1:pos:R:3:spacegroup_kinds:I:1:momenta:R:3:forces:R:3 spacegroup="P 1" unit_cell=conventional occupancy="_JSON {\"0\": {\"Al\": 1}, \"1\": {\"Al\": 1}, \"2\": {\"N\": 1}, \"3\": {\"N\": 1}}" energy=-29.567256927490234 free_energy=-29.567256927490234 stress="0.012915894389152527 0.0017026816494762897 0.003579386742785573 0.0017026816494762897 -0.025857027620077133 -0.005369167309254408 0.003579386742785573 -0.005369167309254408 -0.011435315944254398" pbc="T T T"
Al       1.59598186       0.90138485       2.55101265        0      -0.85003972      -0.64755172      -0.41676310      -0.33522704       0.74370480      -1.26921403
Al      -0.01311800       1.79082858       4.96769658        1      -0.24557028      -0.74327790       1.65595806      -0.18280423      -0.17026758       1.21499777
N        1.52960408       0.86779352       4.41996340        2       0.16413064       0.60763593       0.63654559       0.31887820       0.39321393      -0.09056900
N       -0.00060095       1.87475190       1.90756520        3       0.93147933       0.78319366      -1.87574060       0.19915292      -0.96665132       0.14478558
4
Lattice="3.128588 0.0 0.0 -1.5642939988088433 2.709436998432005 0.0 0.0 0.0 5.016955" Properties=species:S:1:pos:R:3:spacegroup_kinds:I:1:momenta:R:3:forces:R:3 spacegroup="P 1" unit_cell=conventional occupancy="_JSON {\"0\": {\"Al\": 1}, \"1\": {\"Al\": 1}, \"2\": {\"N\": 1}, \"3\": {\"N\": 1}}" energy=-29.406274795532227 free_energy=-29.406274795532227 stress="0.01068861410021782 0.016498224809765816 -0.00816403515636921 0.016498224809765816 -0.009423434734344482 -0.015553954988718033 -0.00816403515636921 -0.015553954988718033 -0.06125396117568016" pbc="T T T"
Al       1.53423929       0.87298461       2.51007452        0      -1.60925400       0.09619224      -1.03262300       0.74608946       1.00298643       0.03482460
Al      -0.01349004       1.78470222       5.05709165        1       0.21561247      -0.04339776       1.72443265       0.02271171       0.40732920      -1.66436875
N        1.55208973       0.92225132       4.42203506        2       0.38659373       0.63935794      -0.93002919       0.04495871      -0.39009684      -0.56986117
N        0.09667397       1.88681816       1.81230438        3       1.00704779      -0.69215245       0.23821952      -0.81375980      -1.02021897       2.19940472
4
Lattice="3.128588 0.0 0.0 -1.5642939988088433 2.709436998432005 0.0 0.0 0.0 5.016955" Properties=species:S:1:pos:R:3:spacegroup_kinds:I:1:momenta:R:3:forces:R:3 spacegroup="P 1" unit_cell=conventional occupancy="_JSON {\"0\": {\"Al\": 1}, \"1\": {\"Al\": 1}, \"2\": {\"N\": 1}, \"3\": {\"N\": 1}}" energy=-29.201906204223633 free_energy=-29.201906204223633 stress="-0.026441028341650963 0.03815562650561333 -0.03138245642185211 0.03815562650561333 -0.0048774671740829945 0.001543710008263588 -0.03138245642185211 0.001543710008263588 -0.05181990936398506" pbc="T T T"
Al       1.49382403       0.87740192       2.48150488        0      -0.08661635      -0.02748809       0.25595499       2.48428154      -0.46186873       1.22611523
Al      -0.02076736       1.79337853       5.08843295        1       0.00716744       0.60209065      -1.27068276       0.64723223       0.57433546      -2.36004019
N        1.60157219       0.96971684       4.33361322        2       0.49437246       0.53651030      -0.17473328      -0.53882360      -0.70145410       1.74608827
N        0.13924908       1.81421452       1.89535166        3      -0.41492353      -1.11111286       1.18946101      -2.59269023       0.58898789      -0.61216366
4
Lattice="3.128588 0.0 0.0 -1.5642939988088433 2.709436998432005 0.0 0.0 0.0 5.016955" Properties=species:S:1:pos:R:3:spacegroup_kinds:I:1:momenta:R:3:forces:R:3 spacegroup="P 1" unit_cell=conventional occupancy="_JSON {\"0\": {\"Al\": 1}, \"1\": {\"Al\": 1}, \"2\": {\"N\": 1}, \"3\": {\"N\": 1}}" energy=-29.574628829956055 free_energy=-29.574628829956055 stress="-0.023617958649992943 -0.014321339316666126 -0.011127989739179611 -0.014321339316666126 0.015029959380626678 -0.0028545078821480274 -0.011127989739179611 -0.0028545078821480274 -0.014440313912928104" pbc="T T T"
Al       1.53421963       0.88369270       2.53780581        0       1.55944068       0.36820861       1.55971074       0.29264241      -0.24000570      -0.91367352
Al      -0.00048008       1.82107765       4.98837341        1       1.01688527       0.86374267      -2.47525515       0.94368905       0.52251118       0.78485906
N        1.63583964       0.96584649       4.40663187        2      -0.31021865      -0.52489271       1.27117372      -1.15103173      -0.78906572       0.05688167
N       -0.01177520       1.75252279       1.90648730        3      -2.26610722      -0.70705857      -0.35562941      -0.08529975       0.50656033       0.07193264
4
Lattice="3.128588 0.0 0.0 -1.5642939988088433 2.709436998432005 0.0 0.0 0.0 5.016955" Properties=species:S:1:pos:R:3:spacegroup_kinds:I:1:momenta:R:3:forces:R:3 spacegroup="P 1" unit_cell=conventional occupancy="_JSON {\"0\": {\"Al\": 1}, \"1\": {\"Al\": 1}, \"2\": {\"N\": 1}, \"3\": {\"N\": 1}}" energy=-29.3720703125 free_energy=-29.3720703125 stress="-0.005629981867969036 -0.01871928572654724 0.015849554911255836 -0.01871928572654724 -0.032272886484861374 0.017212245613336563 0.015849554911255836 0.017212245613336563 -0.007298418786376715" pbc="T T T"
Al       1.57072836       0.88046441       2.56331977        0      -0.00039235      -0.37629536      -0.57844068      -1.34386623      -0.44066018      -1.50707746
Al       0.05055069       1.86456079       4.94968567        1       0.52726998       0.77034160       1.04960215      -0.49129027      -1.36433566       1.82584834
N        1.58204800       0.88176662       4.44992390        2      -0.27832233      -1.02263398      -0.55459333       0.15003826       1.16375971      -0.85894823
N       -0.12661084       1.75915457       1.88869867        3      -0.24855524       0.62858772       0.08343177       1.68511844       0.64123619       0.54017735
4
Lattice="3.128588 0.0 0.0 -1.5642939988088433 2.709436998432005 0.0 0.0 0.0 5.016955" Properties=species:S:1:pos:R:3:spacegroup_kinds:I:1:momenta:R:3:forces:R:3 spacegroup="P 1" unit_cell=conventional occupancy="_JSON {\"0\": {\"Al\": 1}, \"1\": {\"Al\": 1}, \"2\": {\"N\": 1}, \"3\": {\"N\": 1}}" energy=-29.596923828125 free_energy=-29.596923828125 stress="0.0159763190895319 -0.0045060645788908005 0.0060186730697751045 -0.0045060645788908005 -0.025499481707811356 -0.004597151186317205 0.0060186730697751045 -0.004597151186317205 -0.01001384574919939" pbc="T T T"
Al       1.53284809       0.86390064       2.51395076        0      -1.59464523      -0.16469653      -1.74991401      -0.27820772       0.89915943      -0.15420508
Al       0.06317841       1.83227865       5.00948380        1       0.38440036      -1.80666609       1.59450020      -0.58708489      -0.41271549       0.16725133
N        1.58572475       0.89623787       4.41422572        2       0.14193144       1.12964937      -0.09119183       0.25704202       0.38076574       0.00228153
N       -0.08152105       1.83862424       1.90381447        3       1.06831357       0.84171323       0.24660556       0.60825062      -0.86720943      -0.01532800
4
Lattice="3.128588 0.0 0.0 -1.5642939988088433 2.709436998432005 0.0 0.0 0.0 5.016955" Properties=species:S:1:pos:R:3:spacegroup_kinds:I:1:momenta:R:3:forces:R:3 spacegroup="P 1" unit_cell=conventional occupancy="_JSON {\"0\": {\"Al\": 1}, \"1\": {\"Al\": 1}, \"2\": {\"N\": 1}, \"3\": {\"N\": 1}}" energy=-29.462553024291992 free_energy=-29.462553024291992 stress="-0.005697118118405342 0.01084948517382145 -0.003906587604433298 0.01084948517382145 -0.01913396269083023 -0.0127031859010458 -0.003906587604433298 -0.0127031859010458 -0.011871454305946827" pbc="T T T"
Al       1.48347332       0.88264395       2.44527926        0      -0.30454490       1.01149574      -0.60004569       0.88393033       0.95768529       1.70776963
Al       0.06164409       1.77681259       5.07306074        1      -0.86715282      -0.75617385       0.43048959      -0.30080563       0.71655315      -1.72279906
N        1.61717709       0.94947186       4.40498425        2       0.38645890       0.04830090       0.18623330      -0.07234018      -0.67485982       0.48910737
N       -0.01486931       1.85626147       1.92266699        3       0.78523893      -0.30362277      -0.01667732      -0.51078445      -0.99937844      -0.47407722
4
Lattice="3.128588 0.0 0.0 -1.5642939988088433 2.709436998432005 0.0 0.0 0.0 5.016955" Properties=species:S:1:pos:R:3:spacegroup_kinds:I:1:momenta:R:3:forces:R:3 spacegroup="P 1" unit_cell=conventional occupancy="_JSON {\"0\": {\"Al\": 1}, \"1\": {\"Al\": 1}, \"2\": {\"N\": 1}, \"3\": {\"N\": 1}}" energy=-29.518749237060547 free_energy=-29.518749237060547 stress="-0.023370740935206413 0.006539832800626755 -0.01609816774725914 0.006539832800626755 0.006697546225041151 -0.0004823884228244424 -0.01609816774725914 -0.0004823884228244424 -0.022161418572068214" pbc="T T T"
Al       1.50607642       0.94974320       2.46463693        0       1.15921312       0.62635188       1.50689927       1.24247253      -0.60704631       1.15697479
Al       0.01335468       1.75088040       5.06242875        1      -0.91112027       0.14825260      -0.88962677       0.51474667       0.69610631      -1.43088973
N        1.62637959       0.90489621       4.42127859        2      -0.14223518      -0.64065054       0.21498394      -0.71771955      -0.51824176      -0.07984835
N        0.02538009       1.82158362       1.88963021        3      -0.10585763      -0.13395396      -0.83225656      -1.03949964       0.42918205       0.35376316
4
Lattice="3.128588 0.0 0.0 -1.5642939988088433 2.709436998432005 0.0 0.0 0.0 5.016955" Properties=species:S:1:pos:R:3:spacegroup_kinds:I:1:momenta:R:3:forces:R:3 spacegroup="P 1" unit_cell=conventional occupancy="_JSON {\"0\": {\"Al\": 1}, \"1\": {\"Al\": 1}, \"2\": {\"N\": 1}, \"3\": {\"N\": 1}}" energy=-29.605012893676758 free_energy=-29.605012893676758 stress="0.0015960729215294123 -0.006785886827856302 -0.003095109947025776 -0.006785886827856302 0.0017807157710194588 0.0017244559712707996 -0.003095109947025776 0.0017244559712707996 -0.02311529964208603" pbc="T T T"
Al       1.56693926       0.93861030       2.54470907        0       1.44875279      -0.98943858       1.48437408      -0.01659172      -0.29131585      -1.20300901
Al      -0.01304570       1.78057346       4.99752450        1       0.01689799       1.11024960      -1.70730063       0.38438308       0.02358486       0.50761920
N        1.58384202       0.87104970       4.42155573        2      -0.67927474      -0.02704951      -0.19037214      -0.39236560       0.15177771      -0.39793169
N        0.00122216       1.81989279       1.85992056        3      -0.78637602      -0.09376150       0.41329861       0.02457400       0.11595337       1.09332108
4
Lattice="3.128588 0.0 0.0 -1.5642939988088433 2.709436998432005 0.0 0.0 0.0 5.016955" Properties=species:S:1:pos:R:3:spacegroup_kinds:I:1:momenta:R:3:forces:R:3 spacegroup="P 1" unit_cell=conventional occupancy="_JSON {\"0\": {\"Al\": 1}, \"1\": {\"Al\": 1}, \"2\": {\"N\": 1}, \"3\": {\"N\": 1}}" energy=-29.470205307006836 free_energy=-29.470205307006836 stress="0.0032033161260187626 -0.0178015548735857 0.011838346719741821 -0.0178015548735857 -0.04134887084364891 0.007359940558671951 0.011838346719741821 0.007359940558671951 -0.005160200409591198" pbc="T T T"
Al       1.62755629       0.89950078       2.54516750        0       1.04970771      -0.99981846      -0.80202913      -1.41065168       0.15933295      -0.91778791
Al      -0.00757060       1.81703572       4.95606282        1      -0.03758002       0.11959795      -0.16512760      -0.26242644      -0.84351653       1.41445696
N        1.52756233       0.85151202       4.42065481        2      -0.42752167       0.29023072      -0.07965759       0.31765807       0.98894644      -0.00115224
N       -0.06966660       1.84442115       1.93994540        3      -0.58460600       0.58998977       1.04681425       1.35541987      -0.30476269      -0.49551702
4
Lattice="3.128588 0.0 0.0 -1.5642939988088433 2.709436998432005 0.0 0.0 0.0 5.016955" Properties=species:S:1:pos:R:3:spacegroup_kinds:I:1:momenta:R:3:forces:R:3 spacegroup="P 1" unit_cell=conventional occupancy="_JSON {\"0\": {\"Al\": 1}, \"1\": {\"Al\": 1}, \"2\": {\"N\": 1}, \"3\": {\"N\": 1}}" energy=-29.45298957824707 free_energy=-29.45298957824707 stress="-0.013225083239376545 -0.023749975487589836 0.007911493070423603 -0.023749975487589836 -0.04793187230825424 -0.007333341985940933 0.007911493070423603 -0.007333341985940933 0.02863309532403946" pbc="T T T"
Al       1.63184040       0.85684032       2.46693548        0      -0.97589035      -0.55899459      -1.34838325      -1.39010000       1.11026096       1.17304075
Al      -0.02377747       1.82170278       4.98999597        1      -0.28018824       0.45883490       1.28013511      -0.08532251       0.08283265       0.34696928
N        1.52792700       0.92957750       4.44479005        2       0.11446477       0.97873245       0.08012630       0.22035778      -0.17398557       0.05598827
N       -0.04718864       1.83921500       2.00086009        3       1.14161379      -0.87857279      -0.01187817       1.25506461      -1.01910782      -1.57599831
4
Lattice="3.128588 0.0 0.0 -1.5642939988088433 2.709436998432005 0.0 0.0 0.0 5.016955" Properties=species:S:1:pos:R:3:spacegroup_kinds:I:1:momenta:R:3:forces:R:3 spacegroup="P 1" unit_cell=conventional occupancy="_JSON {\"0\": {\"Al\": 1}, \"1\": {\"Al\": 1}, \"2\": {\"N\": 1}, \"3\": {\"N\": 1}}" energy=-29.53631591796875 free_energy=-29.53631591796875 stress="-0.01985756680369377 0.013828870840370655 -0.0057173543609678745 0.013828870840370655 -0.003164020599797368 -0.0016710242489352822 -0.0057173543609678745 -0.0016710242489352822 -0.006260679569095373" pbc="T T T"
Al       1.56291510       0.86348351       2.43836896        0      -1.44558794       0.38889037       0.34074988       0.67285883       0.11609367       1.45909572
Al      -0.01834143       1.83613132       5.05736567        1       0.19731535      -0.00921565       1.04742106       0.06595174       0.15003805      -1.19267464
N        1.54726696       0.95741148       4.47045644        2      -0.01024020       0.05685026       0.14844017       0.09761456      -0.44421113      -0.65174705
N        0.05576968       1.77068662       1.90062723        3       1.25851276      -0.43652503      -1.53661115      -0.83642489       0.17807934       0.38532624
4
Lattice="3.128588 0.0 0.0 -1.5642939988088433 2.709436998432005 0.0 0.0 0.0 5.016955" Properties=species:S:1:pos:R:3:spacegroup_kinds:I:1:momenta:R:3:forces:R:3 spacegroup="P 1" unit_cell=conventional occupancy="_JSON {\"0\": {\"Al\": 1}, \"1\": {\"Al\": 1}, \"2\": {\"N\": 1}, \"3\": {\"N\": 1}}" energy=-29.531002044677734 free_energy=-29.531002044677734 stress="-0.018294071778655052 0.015707768499851227 -0.0116077596321702 0.015707768499851227 0.0031477133743464947 0.004605722147971392 -0.0116077596321702 0.004605722147971392 -0.01725870743393898" pbc="T T T"
Al       1.54701078       0.87273546       2.46070914        0       0.71855739      -0.11584418       0.49435334       1.07476580      -0.28505802       1.06925941
Al      -0.01761628       1.84389392       5.05391117        1       0.19346437       0.17720481      -0.69190130       0.23187834      -0.07942042      -1.16825354
N        1.56395350       0.94331117       4.45961396        2       0.32487430      -0.12409502      -0.51346274      -0.11547108      -0.20503296      -0.72920293
N        0.06831351       1.75176771       1.87546338        3      -1.23689609       0.06273434       0.71101062      -1.19117296       0.56951123       0.82819676
4
Lattice="3.128588 0.0 0.0 -1.5642939988088433 2.709436998432005 0.0 0.0 0.0 5.016955" Properties=species:S:1:pos:R:3:spacegroup_kinds:I:1:momenta:R:3:forces:R:3 spacegroup="P 1" unit_cell=conventional occupancy="_JSON {\"0\": {\"Al\": 1}, \"1\": {\"Al\": 1}, \"2\": {\"N\": 1}, \"3\": {\"N\": 1}}" energy=-29.61321449279785 free_energy=-29.61321449279785 stress="-0.00838182307779789 -0.004276633728295565 0.005492891650646925 -0.004276633728295565 -0.013937225565314293 0.0014803885715082288 0.005492891650646925 0.0014803885715082288 0.01247536763548851" pbc="T T T"
Al       1.57767911       0.87033378       2.48321563        0       0.42145871      -0.10085958       0.75449396      -0.50598806       0.14215332       0.64867610
Al       0.00878681       1.84488737       5.00616578        1       0.94842513       0.04829595      -0.67234610      -0.28190958      -0.37569714       0.05942842
N        1.54733736       0.91884307       4.41695255        2      -0.50233559      -0.06173770      -0.86681664       0.26756686       0.16352557       0.34766653
N       -0.02491943       1.77881448       1.96659665        3      -0.86754829       0.11430129       0.78466867       0.52033079       0.07001835      -1.05577099
4
Lattice="3.128588 0.0 0.0 -1.5642939988088433 2.709436998432005 0.0 0.0 0.0 5.016955" Properties=species:S:1:pos:R:3:spacegroup_kinds:I:1:momenta:R:3:forces:R:3 spacegroup="P 1" unit_cell=conventional occupancy="_JSON {\"0\": {\"Al\": 1}, \"1\": {\"Al\": 1}, \"2\": {\"N\": 1}, \"3\": {\"N\": 1}}" energy=-29.557838439941406 free_energy=-29.557838439941406 stress="-0.016363684087991714 -0.002947375876829028 0.012903657741844654 -0.002947375876829028 -0.006207477301359177 0.0015374721260741353 0.012903657741844654 0.0015374721260741353 -0.0027146136853843927" pbc="T T T"
Al       1.59068815       0.88023433       2.52274584        0      -0.41625633       0.17887110       0.33160780      -0.90884298      -0.14030641      -0.36867943
Al       0.01872292       1.83477373       4.97781993        1       0.14973978      -0.20763084      -0.17578527      -0.72829920      -0.10046300       0.72652614
N        1.52039171       0.92489995       4.39464371        2       0.19754392       0.25939932       0.47781790       0.72476208      -0.09605020       0.71574086
N       -0.04216864       1.77342025       1.96745695        3       0.06897262      -0.23063960      -0.63364052       0.91238004       0.33681974      -1.07358754
4
Lattice="3.128588 0.0 0.0 -1.5642939988088433 2.709436998432005 0.0 0.0 0.0 5.016955" Properties=species:S:1:pos:R:3:spacegroup_kinds:I:1:momenta:R:3:forces:R:3 spacegroup="P 1" unit_cell=conventional occupancy="_JSON {\"0\": {\"Al\": 1}, \"1\": {\"Al\": 1}, \"2\": {\"N\": 1}, \"3\": {\"N\": 1}}" energy=-29.621112823486328 free_energy=-29.621112823486328 stress="-0.021500764414668083 0.005276625044643879 -0.003267443971708417 0.005276625044643879 0.01065758615732193 0.0019249474862590432 -0.003267443971708417 0.0019249474862590432 -0.0015897504054009914" pbc="T T T"
Al       1.54767649       0.89587767       2.50832858        0      -0.85810016       0.46896510      -1.00002993       0.39160407      -0.39029020      -0.15032734
Al       0.00665803       1.82067510       5.00342493        1      -0.72966919      -0.11082627       1.46536658      -0.00949839       0.22696656       0.34863043
N        1.57185931       0.94293299       4.45440721        2       0.62349843      -0.37686563       0.64593239      -0.01969816      -0.43335021      -0.83890045
N        0.01256035       1.75229418       1.88600530        3       0.96427093       0.01872680      -1.11126910      -0.36240739       0.59667403       0.64059752
4
Lattice="3.128588 0.0 0.0 -1.5642939988088433 2.709436998432005 0.0 0.0 0.0 5.016955" Properties=species:S:1:pos:R:3:spacegroup_kinds:I:1:momenta:R:3:forces:R:3 spacegroup="P 1" unit_cell=conventional occupancy="_JSON {\"0\": {\"Al\": 1}, \"1\": {\"Al\": 1}, \"2\": {\"N\": 1}, \"3\": {\"N\": 1}}" energy=-29.520854949951172 free_energy=-29.520854949951172 stress="-0.01404750719666481 0.011820856481790543 -0.014255557209253311 0.011820856481790543 -0.005614640191197395 0.00936142262071371 -0.014255557209253311 0.00936142262071371 -0.019570983946323395" pbc="T T T"
Al       1.52999428       0.91403920       2.46474571        0       0.09545135      -0.23101318      -1.18071385       1.21875226      -0.63577098       0.99290097
Al      -0.00890653       1.82180729       5.05208961        1       0.31216923      -0.10747400       0.45537719       0.39472747      -0.38378504      -1.12710226
N        1.59437713       0.88605549       4.45928985        2      -0.04799021      -0.53350398      -0.20523335      -0.40810573       0.35579014      -0.79021794
N        0.05384448       1.77207221       1.87145000        3      -0.35963038       0.87199116       0.93057002      -1.20537400       0.66376579       0.92441940
4
Lattice="3.128588 0.0 0.0 -1.5642939988088433 2.709436998432005 0.0 0.0 0.0 5.016955" Properties=species:S:1:pos:R:3:spacegroup_kinds:I:1:momenta:R:3:forces:R:3 spacegroup="P 1" unit_cell=conventional occupancy="_JSON {\"0\": {\"Al\": 1}, \"1\": {\"Al\": 1}, \"2\": {\"N\": 1}, \"3\": {\"N\": 1}}" energy=-29.61878776550293 free_energy=-29.61878776550293 stress="0.010117821395397186 -0.0018219739431515336 -0.0018729936564341187 -0.0018219739431515336 -0.024782953783869743 0.004591186530888081 -0.0018729936564341187 0.004591186530888081 2.6523171982262284e-05" pbc="T T T"
Al       1.53818034       0.90928018       2.47247630        0       0.23228527      -0.27447298       1.41733266       0.21201196       0.18702471       0.85530621
Al       0.01802693       1.81430742       5.03506513        1       0.60360842      -0.42930286      -1.11140646       0.03760145      -0.69444120      -0.55142963
N        1.59518015       0.85128039       4.42414641        2       0.09084607       0.02420725      -0.77345536      -0.19470228       0.84070599       0.01229118
N       -0.01452986       1.83034444       1.92467361        3      -0.92673975       0.67956859       0.46752923      -0.05491117      -0.33328944      -0.31616750
4
Lattice="3.128588 0.0 0.0 -1.5642939988088433 2.709436998432005 0.0 0.0 0.0 5.016955" Properties=species:S:1:pos:R:3:spacegroup_kinds:I:1:momenta:R:3:forces:R:3 spacegroup="P 1" unit_cell=conventional occupancy="_JSON {\"0\": {\"Al\": 1}, \"1\": {\"Al\": 1}, \"2\": {\"N\": 1}, \"3\": {\"N\": 1}}" energy=-29.62374496459961 free_energy=-29.62374496459961 stress="0.004300433676689863 -0.008672601543366909 0.0028819057624787092 -0.008672601543366909 -0.006943627260625362 -0.0044345371425151825 0.0028819057624787092 -0.0044345371425151825 -0.014839092269539833" pbc="T T T"
Al       1.54321203       0.89379625       2.53645979        0      -0.00705450      -0.41529076       0.79444899      -0.25249872       0.39302954      -0.87834334
Al       0.03580902       1.79893948       4.98957809        1       0.09337938      -0.29525187      -0.61191835      -0.16601098       0.14058217       0.62745154
N        1.59619757       0.90645093       4.40111845        2      -0.02189826       1.09350767       0.27120864      -0.08899814      -0.09593835       0.34911263
N       -0.05911260       1.83464211       1.91219258        3      -0.06442661      -0.38296510      -0.45373924       0.50750804      -0.43767345      -0.09822105
