4
Lattice="3.128588 0.0 0.0 -1.5642939988088433 2.709436998432005 0.0 0.0 0.0 5.016955" Properties=species:S:1:pos:R:3:spacegroup_kinds:I:1:momenta:R:3:forces:R:3 spacegroup="P 1" unit_cell=conventional occupancy="_JSON {\"0\": {\"Al\": 1}, \"1\": {\"Al\": 1}, \"2\": {\"N\": 1}, \"3\": {\"N\": 1}}" energy=-29.623743057250977 free_energy=-29.623743057250977 stress="0.004300451837480068 -0.008672531694173813 0.002881907159462571 -0.008672531694173813 -0.006943549960851669 -0.004434606060385704 0.002881907159462571 -0.004434606060385704 -0.014839120209217072" pbc="T T T"
Al       1.54321204       0.89379620       2.53645982        0      -0.00705501      -0.41529155       0.79444945      -0.25249925       0.39302963      -0.87834561
Al       0.03580901       1.79893951       4.98957807        1       0.09337851      -0.29525209      -0.61191827      -0.16601290       0.14058489       0.62745249
N        1.59619751       0.90645101       4.40111844        2      -0.02189744       1.09350746       0.27120757      -0.08899616      -0.09594090       0.34911028
N       -0.05911259       1.83464205       1.91219262        3      -0.06442608      -0.38296381      -0.45373877       0.50750816      -0.43767348      -0.09821746
