4
Lattice="3.128588 0.0 0.0 -1.5642939988088433 2.709436998432005 0.0 0.0 0.0 5.016955" Properties=species:S:1:pos:R:3:spacegroup_kinds:I:1:momenta:R:3:forces:R:3 spacegroup="P 1" unit_cell=conventional occupancy="_JSON {\"0\": {\"Al\": 1}, \"1\": {\"Al\": 1}, \"2\": {\"N\": 1}, \"3\": {\"N\": 1}}" energy=-29.673717498779297 free_energy=-29.673717498779297 stress="-0.002225155709311366 -1.4028769328433555e-06 2.397373854989837e-08 -1.4028769328433555e-06 -0.0022273529320955276 -4.881681903157187e-08 2.397373854989837e-08 -4.881681903157187e-08 -0.005453713703900576" pbc="T T T"
Al       1.56429556       0.90314476       2.50490041        0       0.68448204       0.53670047       0.91071479      -0.00003611       0.00001993       0.00553141
Al      -0.00000156       1.80629224       5.01337791        1       0.31075784       0.39520501      -1.87833745       0.00003469      -0.00002003       0.00552396
N        1.56429556       0.90314476       4.41849749        2      -0.23293981      -0.79739853      -0.40745139      -0.00003640       0.00002043      -0.00553041
N       -0.00000156       1.80629224       1.91001999        3      -0.76230006      -0.13450696       1.37507406       0.00003768      -0.00002035      -0.00552513
4
Lattice="3.128588 0.0 0.0 -1.5642939988088433 2.709436998432005 0.0 0.0 0.0 5.016955" Properties=species:S:1:pos:R:3:spacegroup_kinds:I:1:momenta:R:3:forces:R:3 spacegroup="P 1" unit_cell=conventional occupancy="_JSON {\"0\": {\"Al\": 1}, \"1\": {\"Al\": 1}, \"2\": {\"N\": 1}, \"3\": {\"N\": 1}}" energy=-29.433595657348633 free_energy=-29.433595657348633 stress="-0.01377329882234335 -0.016446338966488838 0.012948780320584774 -0.016446338966488838 -0.023968694731593132 0.009969777427613735 0.012948780320584774 0.009969777427613735 -0.012059538625180721" pbc="T T T"
Al       1.60246141       0.92231283       2.54150849        0       0.57498207      -0.13491997       1.02882471      -1.31301403      -0.49033463      -0.87831485
Al       0.00328789       1.81111139       4.94718774        1      -0.44725806       0.00118044      -1.07867319      -0.30154258      -0.59423453       1.18011808
N        1.53678587       0.85870780       4.38099595        2       0.14052034      -0.46066717       0.20203870       0.28490862       0.67984682       1.25553679
N       -0.05228245       1.80432671       2.00436660        3      -0.26824439       0.59440669      -0.15219019       1.32964790       0.40472266      -1.55734015
4
Lattice="3.128588 0.0 0.0 -1.5642939988088433 2.709436998432005 0.0 0.0 0.0 5.016955" Properties=species:S:1:pos:R:3:spacegroup_kinds:I:1:momenta:R:3:forces:R:3 spacegroup="P 1" unit_cell=conventional occupancy="_JSON {\"0\": {\"Al\": 1}, \"1\": {\"Al\": 1}, \"2\": {\"N\": 1}, \"3\": {\"N\": 1}}" energy=-29.567256927490234 free_energy=-29.567256927490234 stress="0.012915803119540215 0.0017024882836267352 0.003579335752874613 0.0017024882836267352 -0.025857076048851013 -0.005369126331061125 0.003579335752874613 -0.005369126331061125 -0.011435327120125294" pbc="T T T"
Al       1.59598186       0.90138485       2.55101265        0      -0.85003961      -0.64755172      -0.41676295      -0.33522725       0.74370402      -1.26921356
Al      -0.01311799       1.79082858       4.96769657        1      -0.24557042      -0.74327769       1.65595798      -0.18280298      -0.17026842       1.21499729
N        1.52960408       0.86779352       4.41996341        2       0.16413086       0.60763571       0.63654571       0.31887701       0.39321446      -0.09056910
N       -0.00060096       1.87475190       1.90756520        3       0.93147913       0.78319371      -1.87574076       0.19915321      -0.96665025       0.14478505
4
Lattice="3.128588 0.0 0.0 -1.5642939988088433 2.709436998432005 0.0 0.0 0.0 5.016955" Properties=species:S:1:pos:R:3:spacegroup_kinds:I:1:momenta:R:3:forces:R:3 spacegroup="P 1" unit_cell=conventional occupancy="_JSON {\"0\": {\"Al\": 1}, \"1\": {\"Al\": 1}, \"2\": {\"N\": 1}, \"3\": {\"N\": 1}}" energy=-29.406274795532227 free_energy=-29.406274795532227 stress="0.01068876776844263 0.01649807207286358 -0.008163996040821075 0.01649807207286358 -0.009423047304153442 -0.015553944744169712 -0.008163996040821075 -0.015553944744169712 -0.06125398352742195" pbc="T T T"
Al       1.53423929       0.87298460       2.51007452        0      -1.60925380       0.09619208      -1.03262327       0.74608731       1.00298536       0.03482340
Al      -0.01349004       1.78470222       5.05709165        1       0.21561232      -0.04339786       1.72443275       0.02271333       0.40732938      -1.66436887
N        1.55208975       0.92225132       4.42203508        2       0.38659396       0.63935798      -0.93002914       0.04495672      -0.39009678      -0.56986165
N        0.09667395       1.88681817       1.81230438        3       1.00704751      -0.69215223       0.23821958      -0.81375724      -1.02021801       2.19940686
4
Lattice="3.128588 0.0 0.0 -1.5642939988088433 2.709436998432005 0.0 0.0 0.0 5.016955" Properties=species:S:1:pos:R:3:spacegroup_kinds:I:1:momenta:R:3:forces:R:3 spacegroup="P 1" unit_cell=conventional occupancy="_JSON {\"0\": {\"Al\": 1}, \"1\": {\"Al\": 1}, \"2\": {\"N\": 1}, \"3\": {\"N\": 1}}" energy=-29.201900482177734 free_energy=-29.201900482177734 stress="-0.026440968737006187 0.038155246526002884 -0.03138256445527077 0.038155246526002884 -0.004877687431871891 0.0015437325928360224 -0.03138256445527077 0.0015437325928360224 -0.05181990936398506" pbc="T T T"
Al       1.49382403       0.87740192       2.48150488        0      -0.08661660      -0.02748801       0.25595541       2.48428226      -0.46186179       1.22611678
Al      -0.02076737       1.79337852       5.08843294        1       0.00716733       0.60209069      -1.27068303       0.64723283       0.57433522      -2.36003971
N        1.60157223       0.96971684       4.33361322        2       0.49437264       0.53651025      -0.17473334      -0.53882623      -0.70145398       1.74608850
N        0.13924905       1.81421454       1.89535166        3      -0.41492337      -1.11111298       1.18946090      -2.59268904       0.58898044      -0.61216569
4
Lattice="3.128588 0.0 0.0 -1.5642939988088433 2.709436998432005 0.0 0.0 0.0 5.016955" Properties=species:S:1:pos:R:3:spacegroup_kinds:I:1:momenta:R:3:forces:R:3 spacegroup="P 1" unit_cell=conventional occupancy="_JSON {\"0\": {\"Al\": 1}, \"1\": {\"Al\": 1}, \"2\": {\"N\": 1}, \"3\": {\"N\": 1}}" energy=-29.57462501525879 free_energy=-29.57462501525879 stress="-0.02361794002354145 -0.014321301132440567 -0.011127972044050694 -0.014321301132440567 0.015030314214527607 -0.002854597754776478 -0.011127972044050694 -0.002854597754776478 -0.014440372586250305" pbc="T T T"
Al       1.53421962       0.88369269       2.53780582        0       1.55944059       0.36820890       1.55971065       0.29264310      -0.24000606      -0.91367763
Al      -0.00048007       1.82107764       4.98837340        1       1.01688587       0.86374308      -2.47525477       0.94369602       0.52251720       0.78486538
N        1.63583965       0.96584649       4.40663187        2      -0.31021938      -0.52489308       1.27117352      -1.15103817      -0.78907371       0.05687851
N       -0.01177522       1.75252281       1.90648730        3      -2.26610713      -0.70705893      -0.35562946      -0.08530097       0.50656259       0.07193379
4
Lattice="3.128588 0.0 0.0 -1.5642939988088433 2.709436998432005 0.0 0.0 0.0 5.016955" Properties=species:S:1:pos:R:3:spacegroup_kinds:I:1:momenta:R:3:forces:R:3 spacegroup="P 1" unit_cell=conventional occupancy="_JSON {\"0\": {\"Al\": 1}, \"1\": {\"Al\": 1}, \"2\": {\"N\": 1}, \"3\": {\"N\": 1}}" energy=-29.372072219848633 free_energy=-29.372072219848633 stress="-0.005629746243357658 -0.01871941052377224 0.01584947481751442 -0.01871941052377224 -0.032272957265377045 0.017212236300110817 0.01584947481751442 0.017212236300110817 -0.007298222742974758" pbc="T T T"
Al       1.57072835       0.88046442       2.56331976        0      -0.00039263      -0.37629509      -0.57844100      -1.34386492      -0.44065827      -1.50707901
Al       0.05055072       1.86456081       4.94968568        1       0.52727011       0.77034125       1.04960243      -0.49129105      -1.36433876       1.82584929
N        1.58204795       0.88176659       4.44992390        2      -0.27832253      -1.02263366      -0.55459315       0.15003882       1.16376233      -0.85894912
N       -0.12661084       1.75915455       1.88869868        3      -0.24855501       0.62858744       0.08343166       1.68511724       0.64123470       0.54017913
4
Lattice="3.128588 0.0 0.0 -1.5642939988088433 2.709436998432005 0.0 0.0 0.0 5.016955" Properties=species:S:1:pos:R:3:spacegroup_kinds:I:1:momenta:R:3:forces:R:3 spacegroup="P 1" unit_cell=conventional occupancy="_JSON {\"0\": {\"Al\": 1}, \"1\": {\"Al\": 1}, \"2\": {\"N\": 1}, \"3\": {\"N\": 1}}" energy=-29.596923828125 free_energy=-29.596923828125 stress="0.01597622036933899 -0.004505998454988003 0.006018686108291149 -0.004505998454988003 -0.02549954317510128 -0.004597131162881851 0.006018686108291149 -0.004597131162881851 -0.010013814084231853" pbc="T T T"
Al       1.53284806       0.86390066       2.51395075        0      -1.59464545      -0.16469654      -1.74991403      -0.27820697       0.89915860      -0.15420507
Al       0.06317841       1.83227864       5.00948381        1       0.38439975      -1.80666667       1.59449970      -0.58708400      -0.41271597       0.16725090
N        1.58572476       0.89623787       4.41422573        2       0.14193228       1.12964979      -0.09119142       0.25704110       0.38076624       0.00228121
N       -0.08152104       1.83862420       1.90381447        3       1.06831339       0.84171333       0.24660570       0.60825002      -0.86720896      -0.01532713
4
Lattice="3.128588 0.0 0.0 -1.5642939988088433 2.709436998432005 0.0 0.0 0.0 5.016955" Properties=species:S:1:pos:R:3:spacegroup_kinds:I:1:momenta:R:3:forces:R:3 spacegroup="P 1" unit_cell=conventional occupancy="_JSON {\"0\": {\"Al\": 1}, \"1\": {\"Al\": 1}, \"2\": {\"N\": 1}, \"3\": {\"N\": 1}}" energy=-29.462553024291992 free_energy=-29.462553024291992 stress="-0.005697134882211685 0.01084946095943451 -0.00390658900141716 0.01084946095943451 -0.01913398690521717 -0.012703216634690762 -0.00390658900141716 -0.012703216634690762 -0.011871532537043095" pbc="T T T"
Al       1.48347328       0.88264395       2.44527925        0      -0.30454529       1.01149533      -0.60004541       0.88393056       0.95768493       1.70776987
Al       0.06164408       1.77681256       5.07306073        1      -0.86715238      -0.75617392       0.43048920      -0.30080539       0.71655446      -1.72280133
N        1.61717713       0.94947186       4.40498428        2       0.38645864       0.04830066       0.18623342      -0.07234105      -0.67486095       0.48910803
N       -0.01486930       1.85626149       1.92266700        3       0.78523898      -0.30362212      -0.01667729      -0.51078415      -0.99937832      -0.47407681
4
Lattice="3.128588 0.0 0.0 -1.5642939988088433 2.709436998432005 0.0 0.0 0.0 5.016955" Properties=species:S:1:pos:R:3:spacegroup_kinds:I:1:momenta:R:3:forces:R:3 spacegroup="P 1" unit_cell=conventional occupancy="_JSON {\"0\": {\"Al\": 1}, \"1\": {\"Al\": 1}, \"2\": {\"N\": 1}, \"3\": {\"N\": 1}}" energy=-29.51875114440918 free_energy=-29.51875114440918 stress="-0.023370666429400444 0.006539956200867891 -0.016098255291581154 0.006539956200867891 0.0066972714848816395 -0.0004823877243325114 -0.016098255291581154 -0.0004823877243325114 -0.022161273285746574" pbc="T T T"
Al       1.50607636       0.94974319       2.46463695        0       1.15921331       0.62635211       1.50689972       1.24247539      -0.60704589       1.15697527
Al       0.01335470       1.75088039       5.06242874        1      -0.91111964       0.14825304      -0.88962661       0.51474601       0.69610566      -1.43088996
N        1.62637960       0.90489617       4.42127859        2      -0.14223572      -0.64065105       0.21498352      -0.71771789      -0.51824176      -0.07984866
N        0.02538010       1.82158367       1.88963023        3      -0.10585795      -0.13395414      -0.83225672      -1.03950357       0.42918193       0.35376352
4
Lattice="3.128588 0.0 0.0 -1.5642939988088433 2.709436998432005 0.0 0.0 0.0 5.016955" Properties=species:S:1:pos:R:3:spacegroup_kinds:I:1:momenta:R:3:forces:R:3 spacegroup="P 1" unit_cell=conventional occupancy="_JSON {\"0\": {\"Al\": 1}, \"1\": {\"Al\": 1}, \"2\": {\"N\": 1}, \"3\": {\"N\": 1}}" energy=-29.60500717163086 free_energy=-29.60500717163086 stress="0.0015956874703988433 -0.0067859822884202 -0.003095559310168028 -0.0067859822884202 0.00178045267239213 0.0017242783214896917 -0.003095559310168028 0.0017242783214896917 -0.023113558068871498" pbc="T T T"
Al       1.56693923       0.93861030       2.54470910        0       1.44875331      -0.98943811       1.48437406      -0.01659175      -0.29131633      -1.20300913
Al      -0.01304568       1.78057346       4.99752451        1       0.01689797       1.11024942      -1.70730034       0.38438442       0.02358253       0.50760543
N        1.58384204       0.87104965       4.42155570        2      -0.67927453      -0.02704923      -0.19037203      -0.39236784       0.15177773      -0.39792541
N        0.00122211       1.81989280       1.85992054        3      -0.78637673      -0.09376215       0.41329823       0.02457511       0.11595616       1.09332931
4
Lattice="3.128588 0.0 0.0 -1.5642939988088433 2.709436998432005 0.0 0.0 0.0 5.016955" Properties=species:S:1:pos:R:3:spacegroup_kinds:I:1:momenta:R:3:forces:R:3 spacegroup="P 1" unit_cell=conventional occupancy="_JSON {\"0\": {\"Al\": 1}, \"1\": {\"Al\": 1}, \"2\": {\"N\": 1}, \"3\": {\"N\": 1}}" energy=-29.470205307006836 free_energy=-29.470205307006836 stress="0.0032033948227763176 -0.01780160702764988 0.011838325299322605 -0.01780160702764988 -0.04134906455874443 0.007359976880252361 0.011838325299322605 0.007359976880252361 -0.005160189233720303" pbc="T T T"
Al       1.62755626       0.89950079       2.54516752        0       1.04970749      -0.99981857      -0.80202925      -1.41064656       0.15933347      -0.91779029
Al      -0.00757056       1.81703570       4.95606283        1      -0.03757959       0.11959797      -0.16512800      -0.26242465      -0.84351975       1.41445541
N        1.52756233       0.85151203       4.42065482        2      -0.42752219       0.29023115      -0.07965688       0.31765538       0.98895037      -0.00115426
N       -0.06966666       1.84442111       1.93994536        3      -0.58460569       0.58998938       1.04681408       1.35541582      -0.30476415      -0.49551114
4
Lattice="3.128588 0.0 0.0 -1.5642939988088433 2.709436998432005 0.0 0.0 0.0 5.016955" Properties=species:S:1:pos:R:3:spacegroup_kinds:I:1:momenta:R:3:forces:R:3 spacegroup="P 1" unit_cell=conventional occupancy="_JSON {\"0\": {\"Al\": 1}, \"1\": {\"Al\": 1}, \"2\": {\"N\": 1}, \"3\": {\"N\": 1}}" energy=-29.45298957824707 free_energy=-29.45298957824707 stress="-0.01322533842176199 -0.023750150576233864 0.007911494933068752 -0.023750150576233864 -0.04793189465999603 -0.007333342917263508 0.007911494933068752 -0.007333342917263508 0.028632983565330505" pbc="T T T"
Al       1.63184036       0.85684029       2.46693548        0      -0.97589055      -0.55899580      -1.34838396      -1.39009917       1.11026049       1.17303944
Al      -0.02377745       1.82170276       4.98999598        1      -0.28018887       0.45883508       1.28013549      -0.08532828       0.08283797       0.34697130
N        1.52792700       0.92957755       4.44479005        2       0.11446520       0.97873250       0.08012581       0.22036362      -0.17399134       0.05598705
N       -0.04718866       1.83921500       2.00086008        3       1.14161424      -0.87857184      -0.01187737       1.25506377      -1.01910710      -1.57599759
4
Lattice="3.128588 0.0 0.0 -1.5642939988088433 2.709436998432005 0.0 0.0 0.0 5.016955" Properties=species:S:1:pos:R:3:spacegroup_kinds:I:1:momenta:R:3:forces:R:3 spacegroup="P 1" unit_cell=conventional occupancy="_JSON {\"0\": {\"Al\": 1}, \"1\": {\"Al\": 1}, \"2\": {\"N\": 1}, \"3\": {\"N\": 1}}" energy=-29.536317825317383 free_energy=-29.536317825317383 stress="-0.019857726991176605 0.013828951865434647 -0.0057173664681613445 0.013828951865434647 -0.003164216410368681 -0.0016709681367501616 -0.0057173664681613445 -0.0016709681367501616 -0.006260567344725132" pbc="T T T"
Al       1.56291507       0.86348347       2.43836895        0      -1.44558740       0.38889104       0.34074966       0.67285997       0.11609357       1.45909607
Al      -0.01834144       1.83613133       5.05736569        1       0.19731468      -0.00921492       1.04742109       0.06595343       0.15003574      -1.19267416
N        1.54726701       0.95741149       4.47045641        2      -0.01023980       0.05684954       0.14844005       0.09761302      -0.44420898      -0.65174788
N        0.05576966       1.77068664       1.90062726        3       1.25851255      -0.43652572      -1.53661083      -0.83642638       0.17807935       0.38532573
4
Lattice="3.128588 0.0 0.0 -1.5642939988088433 2.709436998432005 0.0 0.0 0.0 5.016955" Properties=species:S:1:pos:R:3:spacegroup_kinds:I:1:momenta:R:3:forces:R:3 spacegroup="P 1" unit_cell=conventional occupancy="_JSON {\"0\": {\"Al\": 1}, \"1\": {\"Al\": 1}, \"2\": {\"N\": 1}, \"3\": {\"N\": 1}}" energy=-29.5310001373291 free_energy=-29.5310001373291 stress="-0.0182940810918808 0.01570759154856205 -0.011607701890170574 0.01570759154856205 0.0031479448080062866 0.004605612251907587 -0.011607701890170574 0.004605612251907587 -0.017258796840906143" pbc="T T T"
Al       1.54701078       0.87273545       2.46070913        0       0.71855799      -0.11584325       0.49435338       1.07476795      -0.28505757       1.06925392
Al      -0.01761628       1.84389394       5.05391118        1       0.19346473       0.17720480      -0.69190153       0.23187792      -0.07941864      -1.16824925
N        1.56395352       0.94331116       4.45961397        2       0.32487363      -0.12409479      -0.51346200      -0.11547221      -0.20503308      -0.72920352
N        0.06831345       1.75176766       1.87546339        3      -1.23689635       0.06273321       0.71101013      -1.19117355       0.56950939       0.82819891
4
Lattice="3.128588 0.0 0.0 -1.5642939988088433 2.709436998432005 0.0 0.0 0.0 5.016955" Properties=species:S:1:pos:R:3:spacegroup_kinds:I:1:momenta:R:3:forces:R:3 spacegroup="P 1" unit_cell=conventional occupancy="_JSON {\"0\": {\"Al\": 1}, \"1\": {\"Al\": 1}, \"2\": {\"N\": 1}, \"3\": {\"N\": 1}}" energy=-29.613210678100586 free_energy=-29.613210678100586 stress="-0.00838217232376337 -0.0042767697013914585 0.0054928758181631565 -0.0042767697013914585 -0.013937192037701607 0.0014804874081164598 0.0054928758181631565 0.0014804874081164598 0.012475505471229553" pbc="T T T"
Al       1.57767912       0.87033378       2.48321563        0       0.42145835      -0.10086040       0.75449432      -0.50599509       0.14215140       0.64867604
Al       0.00878681       1.84488739       5.00616577        1       0.94842526       0.04829604      -0.67234659      -0.28190863      -0.37569529       0.05942761
N        1.54733733       0.91884309       4.41695260        2      -0.50233608      -0.06173755      -0.86681643       0.26756704       0.16352260       0.34766859
N       -0.02491946       1.77881439       1.96659665        3      -0.86754755       0.11430193       0.78466874       0.52033675       0.07002135      -1.05577254
4
Lattice="3.128588 0.0 0.0 -1.5642939988088433 2.709436998432005 0.0 0.0 0.0 5.016955" Properties=species:S:1:pos:R:3:spacegroup_kinds:I:1:momenta:R:3:forces:R:3 spacegroup="P 1" unit_cell=conventional occupancy="_JSON {\"0\": {\"Al\": 1}, \"1\": {\"Al\": 1}, \"2\": {\"N\": 1}, \"3\": {\"N\": 1}}" energy=-29.55784034729004 free_energy=-29.55784034729004 stress="-0.01636386476457119 -0.0029478617943823338 0.012903875671327114 -0.0029478617943823338 -0.006207763217389584 0.0015376590890809894 0.012903875671327114 0.0015376590890809894 -0.0027147820219397545" pbc="T T T"
Al       1.59068813       0.88023427       2.52274584        0      -0.41625674       0.17886970       0.33160773      -0.90884399      -0.14030823      -0.36868063
Al       0.01872290       1.83477375       4.97781993        1       0.14973895      -0.20763021      -0.17578498      -0.72829735      -0.10046136       0.72652978
N        1.52039169       0.92489997       4.39464375        2       0.19754454       0.25939884       0.47781756       0.72475874      -0.09605245       0.71573931
N       -0.04216860       1.77342027       1.96745695        3       0.06897329      -0.23063834      -0.63364031       0.91238248       0.33682215      -1.07358861
4
Lattice="3.128588 0.0 0.0 -1.5642939988088433 2.709436998432005 0.0 0.0 0.0 5.016955" Properties=species:S:1:pos:R:3:spacegroup_kinds:I:1:momenta:R:3:forces:R:3 spacegroup="P 1" unit_cell=conventional occupancy="_JSON {\"0\": {\"Al\": 1}, \"1\": {\"Al\": 1}, \"2\": {\"N\": 1}, \"3\": {\"N\": 1}}" energy=-29.621110916137695 free_energy=-29.621110916137695 stress="-0.021500537171959877 0.005276423413306475 -0.0032674993854016066 0.005276423413306475 0.0106576606631279 0.0019251899793744087 -0.0032674993854016066 0.0019251899793744087 -0.0015898793935775757" pbc="T T T"
Al       1.54767648       0.89587759       2.50832855        0      -0.85809927       0.46896520      -1.00003079       0.39160526      -0.39029038      -0.15032007
Al       0.00665798       1.82067515       5.00342497        1      -0.72966951      -0.11082585       1.46536762      -0.00949541       0.22696699       0.34862679
N        1.57185934       0.94293297       4.45440719        2       0.62349871      -0.37686559       0.64593185      -0.01970112      -0.43335170      -0.83890092
N        0.01256037       1.75229423       1.88600535        3       0.96427006       0.01872626      -1.11126871      -0.36240876       0.59667492       0.64059418
4
Lattice="3.128588 0.0 0.0 -1.5642939988088433 2.709436998432005 0.0 0.0 0.0 5.016955" Properties=species:S:1:pos:R:3:spacegroup_kinds:I:1:momenta:R:3:forces:R:3 spacegroup="P 1" unit_cell=conventional occupancy="_JSON {\"0\": {\"Al\": 1}, \"1\": {\"Al\": 1}, \"2\": {\"N\": 1}, \"3\": {\"N\": 1}}" energy=-29.520856857299805 free_energy=-29.520856857299805 stress="-0.014047388918697834 0.011821042746305466 -0.014255568385124207 0.011821042746305466 -0.005614549852907658 0.009361406788229942 -0.014255568385124207 0.009361406788229942 -0.019570859149098396" pbc="T T T"
Al       1.52999431       0.91403914       2.46474569        0       0.09545167      -0.23101226      -1.18071277       1.21875215      -0.63576949       0.99289745
Al      -0.00890656       1.82180736       5.05208966        1       0.31217011      -0.10747389       0.45537603       0.39472750      -0.38378432      -1.12710154
N        1.59437711       0.88605549       4.45928985        2      -0.04799115      -0.53350366      -0.20523238      -0.40810543       0.35578945      -0.79021668
N        0.05384445       1.77207217       1.87145000        3      -0.35963063       0.87198978       0.93056916      -1.20537448       0.66376430       0.92442012
4
Lattice="3.128588 0.0 0.0 -1.5642939988088433 2.709436998432005 0.0 0.0 0.0 5.016955" Properties=species:S:1:pos:R:3:spacegroup_kinds:I:1:momenta:R:3:forces:R:3 spacegroup="P 1" unit_cell=conventional occupancy="_JSON {\"0\": {\"Al\": 1}, \"1\": {\"Al\": 1}, \"2\": {\"N\": 1}, \"3\": {\"N\": 1}}" energy=-29.618785858154297 free_energy=-29.618785858154297 stress="0.010117657482624054 -0.0018218669574707747 -0.0018730557058006525 -0.0018218669574707747 -0.024783167988061905 0.004591111559420824 -0.0018730557058006525 0.004591111559420824 2.6388621336081997e-05" pbc="T T T"
Al       1.53818036       0.90928016       2.47247631        0       0.23228505      -0.27447287       1.41733274       0.21201053       0.18702178       0.85530770
Al       0.01802694       1.81430746       5.03506513        1       0.60360862      -0.42930351      -1.11140748       0.03759982      -0.69444180      -0.55142587
N        1.59518006       0.85128044       4.42414648        2       0.09084579       0.02420788      -0.77345484      -0.19470102       0.84070569       0.01228112
N       -0.01452987       1.83034431       1.92467357        3      -0.92673945       0.67956849       0.46752956      -0.05490927      -0.33328581      -0.31616306
4
Lattice="3.128588 0.0 0.0 -1.5642939988088433 2.709436998432005 0.0 0.0 0.0 5.016955" Properties=species:S:1:pos:R:3:spacegroup_kinds:I:1:momenta:R:3:forces:R:3 spacegroup="P 1" unit_cell=conventional occupancy="_JSON {\"0\": {\"Al\": 1}, \"1\": {\"Al\": 1}, \"2\": {\"N\": 1}, \"3\": {\"N\": 1}}" energy=-29.623743057250977 free_energy=-29.623743057250977 stress="0.004300451837480068 -0.008672531694173813 0.002881907159462571 -0.008672531694173813 -0.006943549960851669 -0.004434606060385704 0.002881907159462571 -0.004434606060385704 -0.014839120209217072" pbc="T T T"
Al       1.54321204       0.89379620       2.53645982        0      -0.00705501      -0.41529155       0.79444945      -0.25249925       0.39302963      -0.87834561
Al       0.03580901       1.79893951       4.98957807        1       0.09337851      -0.29525209      -0.61191827      -0.16601290       0.14058489       0.62745249
N        1.59619751       0.90645101       4.40111844        2      -0.02189744       1.09350746       0.27120757      -0.08899616      -0.09594090       0.34911028
N       -0.05911259       1.83464205       1.91219262        3      -0.06442608      -0.38296381      -0.45373877       0.50750816      -0.43767348      -0.09821746
