4
Lattice="3.128588 0.0 0.0 -1.5642939988088433 2.709436998432005 0.0 0.0 0.0 5.016955" Properties=species:S:1:pos:R:3:spacegroup_kinds:I:1:forces:R:3 spacegroup="P 1" unit_cell=conventional occupancy="_JSON {\"0\": {\"Al\": 1}, \"1\": {\"Al\": 1}, \"2\": {\"N\": 1}, \"3\": {\"N\": 1}}" energy=-29.673717498779297 free_energy=-29.673717498779297 stress="-0.002225155709311366 -1.4028769328433555e-06 2.397373854989837e-08 -1.4028769328433555e-06 -0.0022273529320955276 -4.881681903157187e-08 2.397373854989837e-08 -4.881681903157187e-08 -0.005453713703900576" pbc="T T T"
Al       1.56429556       0.90314476       2.50490041        0      -0.00003611       0.00001993       0.00553141
Al      -0.00000156       1.80629224       5.01337791        1       0.00003469      -0.00002003       0.00552396
N        1.56429556       0.90314476       4.41849749        2      -0.00003640       0.00002043      -0.00553041
N       -0.00000156       1.80629224       1.91001999        3       0.00003768      -0.00002035      -0.00552513
