4
Lattice="3.128588 0.0 0.0 -1.5642939988088433 2.709436998432005 0.0 0.0 0.0 5.016955" Properties=species:S:1:pos:R:3:spacegroup_kinds:I:1:momenta:R:3:forces:R:3 spacegroup="P 1" unit_cell=conventional occupancy="_JSON {\"0\": {\"Al\": 1}, \"1\": {\"Al\": 1}, \"2\": {\"N\": 1}, \"3\": {\"N\": 1}}" energy=-29.623741149902344 free_energy=-29.623741149902344 stress="0.004300429951399565 -0.008672618307173252 0.0028819891158491373 -0.008672618307173252 -0.006943858228623867 -0.004434386268258095 0.0028819891158491373 -0.004434386268258095 -0.014839001931250095" pbc="T T T"
Al       1.54321204       0.89379621       2.53645982        0      -0.00705447      -0.41529180       0.79444980      -0.25250009       0.39302972      -0.87834632
Al       0.03580903       1.79893953       4.98957802        1       0.09337936      -0.29525109      -0.61191909      -0.16601539       0.14057930       0.62745541
N        1.59619751       0.90645096       4.40111851        2      -0.02189820       1.09350650       0.27120753      -0.08899378      -0.09593426       0.34911457
N       -0.05911258       1.83464205       1.91219264        3      -0.06442673      -0.38296362      -0.45373824       0.50750923      -0.43767476      -0.09822375
