4
Lattice="3.128588 0.0 0.0 -1.5642939988088433 2.709436998432005 0.0 0.0 0.0 5.016955" Properties=species:S:1:pos:R:3:spacegroup_kinds:I:1:momenta:R:3:forces:R:3 spacegroup="P 1" unit_cell=conventional occupancy="_JSON {\"0\": {\"Al\": 1}, \"1\": {\"Al\": 1}, \"2\": {\"N\": 1}, \"3\": {\"N\": 1}}" energy=-29.673717498779297 free_energy=-29.673717498779297 stress="-0.0022255138028413057 -1.369192204947467e-06 -1.378498293291841e-08 -1.369192204947467e-06 -0.0022276691161096096 -2.4953170196795327e-08 -1.378498293291841e-08 -2.4953170196795327e-08 -0.005453684367239475" pbc="T T T"
Al       1.56429556       0.90314476       2.50490041        0       0.68448204       0.53670047       0.91071479      -0.00003370       0.00002039       0.00553180
Al      -0.00000156       1.80629224       5.01337791        1       0.31075784       0.39520501      -1.87833745       0.00003413      -0.00002055       0.00552482
N        1.56429556       0.90314476       4.41849749        2      -0.23293981      -0.79739853      -0.40745139      -0.00003587       0.00002097      -0.00553050
N       -0.00000156       1.80629224       1.91001999        3      -0.76230006      -0.13450696       1.37507406       0.00003544      -0.00002088      -0.00552598
4
Lattice="3.128588 0.0 0.0 -1.5642939988088433 2.709436998432005 0.0 0.0 0.0 5.016955" Properties=species:S:1:pos:R:3:spacegroup_kinds:I:1:momenta:R:3:forces:R:3 spacegroup="P 1" unit_cell=conventional occupancy="_JSON {\"0\": {\"Al\": 1}, \"1\": {\"Al\": 1}, \"2\": {\"N\": 1}, \"3\": {\"N\": 1}}" energy=-29.43359375 free_energy=-29.43359375 stress="-0.013773481361567974 -0.016446365043520927 0.012948810122907162 -0.016446365043520927 -0.02396881766617298 0.009969732724130154 0.012948810122907162 0.009969732724130154 -0.012059459462761879" pbc="T T T"
Al       1.60246141       0.92231283       2.54150849        0       0.57498223      -0.13491986       1.02882474      -1.31301260      -0.49033439      -0.87831497
Al       0.00328788       1.81111139       4.94718775        1      -0.44725816       0.00118045      -1.07867298      -0.30154124      -0.59423220       1.18011940
N        1.53678588       0.85870780       4.38099594        2       0.14052046      -0.46066718       0.20203859       0.28490755       0.67984456       1.25553608
N       -0.05228246       1.80432671       2.00436659        3      -0.26824456       0.59440659      -0.15219037       1.32964647       0.40472192      -1.55734038
4
Lattice="3.128588 0.0 0.0 -1.5642939988088433 2.709436998432005 0.0 0.0 0.0 5.016955" Properties=species:S:1:pos:R:3:spacegroup_kinds:I:1:momenta:R:3:forces:R:3 spacegroup="P 1" unit_cell=conventional occupancy="_JSON {\"0\": {\"Al\": 1}, \"1\": {\"Al\": 1}, \"2\": {\"N\": 1}, \"3\": {\"N\": 1}}" energy=-29.567256927490234 free_energy=-29.567256927490234 stress="0.012915866449475288 0.0017025285633280873 0.00357940886169672 0.0017025285633280873 -0.02585696429014206 -0.005369137041270733 0.00357940886169672 -0.005369137041270733 -0.011435343883931637" pbc="T T T"
Al       1.59598187       0.90138485       2.55101265        0      -0.85003991      -0.64755193      -0.41676292      -0.33522812       0.74370271      -1.26921415
Al      -0.01311800       1.79082858       4.96769658        1      -0.24557010      -0.74327793       1.65595782      -0.18280232      -0.17026833       1.21499777
N        1.52960410       0.86779351       4.41996341        2       0.16413065       0.60763576       0.63654570       0.31887698       0.39321455      -0.09056941
N       -0.00060097       1.87475190       1.90756518        3       0.93147934       0.78319407      -1.87574062       0.19915339      -0.96664906       0.14478594
4
Lattice="3.128588 0.0 0.0 -1.5642939988088433 2.709436998432005 0.0 0.0 0.0 5.016955" Properties=species:S:1:pos:R:3:spacegroup_kinds:I:1:momenta:R:3:forces:R:3 spacegroup="P 1" unit_cell=conventional occupancy="_JSON {\"0\": {\"Al\": 1}, \"1\": {\"Al\": 1}, \"2\": {\"N\": 1}, \"3\": {\"N\": 1}}" energy=-29.406274795532227 free_energy=-29.406274795532227 stress="0.010688812471926212 0.01649811863899231 -0.008164013735949993 0.01649811863899231 -0.00942328292876482 -0.015553983859717846 -0.008164013735949993 -0.015553983859717846 -0.06125416234135628" pbc="T T T"
Al       1.53423928       0.87298461       2.51007453        0      -1.60925406       0.09619213      -1.03262303       0.74608624       1.00298786       0.03482306
Al      -0.01349003       1.78470221       5.05709164        1       0.21561230      -0.04339803       1.72443228       0.02271380       0.40732896      -1.66436887
N        1.55208975       0.92225132       4.42203509        2       0.38659400       0.63935817      -0.93002919       0.04495641      -0.39009672      -0.56986111
N        0.09667396       1.88681818       1.81230437        3       1.00704775      -0.69215230       0.23821996      -0.81375647      -1.02022004       2.19940686
4
Lattice="3.128588 0.0 0.0 -1.5642939988088433 2.709436998432005 0.0 0.0 0.0 5.016955" Properties=species:S:1:pos:R:3:spacegroup_kinds:I:1:momenta:R:3:forces:R:3 spacegroup="P 1" unit_cell=conventional occupancy="_JSON {\"0\": {\"Al\": 1}, \"1\": {\"Al\": 1}, \"2\": {\"N\": 1}, \"3\": {\"N\": 1}}" energy=-29.201902389526367 free_energy=-29.201902389526367 stress="-0.0264409389346838 0.03815532475709915 -0.03138259798288345 0.03815532475709915 -0.004877239000052214 0.0015437925467267632 -0.03138259798288345 0.0015437925467267632 -0.05181984230875969" pbc="T T T"
Al       1.49382402       0.87740192       2.48150490        0      -0.08661659      -0.02748805       0.25595575       2.48428249      -0.46186790       1.22611952
Al      -0.02076736       1.79337851       5.08843293        1       0.00716738       0.60209056      -1.27068307       0.64723253       0.57433438      -2.36003995
N        1.60157223       0.96971685       4.33361321        2       0.49437276       0.53651043      -0.17473340      -0.53882587      -0.70145416       1.74608850
N        0.13924906       1.81421454       1.89535169        3      -0.41492346      -1.11111295       1.18946078      -2.59268904       0.58898735      -0.61216795
4
Lattice="3.128588 0.0 0.0 -1.5642939988088433 2.709436998432005 0.0 0.0 0.0 5.016955" Properties=species:S:1:pos:R:3:spacegroup_kinds:I:1:momenta:R:3:forces:R:3 spacegroup="P 1" unit_cell=conventional occupancy="_JSON {\"0\": {\"Al\": 1}, \"1\": {\"Al\": 1}, \"2\": {\"N\": 1}, \"3\": {\"N\": 1}}" energy=-29.574626922607422 free_energy=-29.574626922607422 stress="-0.023618174716830254 -0.014321250841021538 -0.01112794317305088 -0.014321250841021538 0.015029924921691418 -0.002854651538655162 -0.01112794317305088 -0.002854651538655162 -0.014440394937992096" pbc="T T T"
Al       1.53421961       0.88369269       2.53780582        0       1.55944036       0.36820883       1.55970985       0.29264182      -0.24000302      -0.91367769
Al      -0.00048005       1.82107763       4.98837341        1       1.01688586       0.86374312      -2.47525388       0.94369513       0.52251726       0.78486639
N        1.63583965       0.96584649       4.40663186        2      -0.31021911      -0.52489319       1.27117359      -1.15103781      -0.78907347       0.05687787
N       -0.01177521       1.75252282       1.90648731        3      -2.26610704      -0.70705882      -0.35562957      -0.08529929       0.50655890       0.07193337
4
Lattice="3.128588 0.0 0.0 -1.5642939988088433 2.709436998432005 0.0 0.0 0.0 5.016955" Properties=species:S:1:pos:R:3:spacegroup_kinds:I:1:momenta:R:3:forces:R:3 spacegroup="P 1" unit_cell=conventional occupancy="_JSON {\"0\": {\"Al\": 1}, \"1\": {\"Al\": 1}, \"2\": {\"N\": 1}, \"3\": {\"N\": 1}}" energy=-29.372072219848633 free_energy=-29.372072219848633 stress="-0.0056296284310519695 -0.018719516694545746 0.015849469229578972 -0.018719516694545746 -0.03227280452847481 0.017212212085723877 0.015849469229578972 0.017212212085723877 -0.007298149634152651" pbc="T T T"
Al       1.57072833       0.88046442       2.56331975        0      -0.00039232      -0.37629487      -0.57844105      -1.34386456      -0.44065887      -1.50707793
Al       0.05055074       1.86456079       4.94968571        1       0.52727009       0.77034149       1.04960257      -0.49128911      -1.36433697       1.82584834
N        1.58204798       0.88176659       4.44992389        2      -0.27832229      -1.02263382      -0.55459296       0.15003592       1.16376078      -0.85894918
N       -0.12661085       1.75915457       1.88869866        3      -0.24855540       0.62858714       0.08343136       1.68511796       0.64123517       0.54017872
4
Lattice="3.128588 0.0 0.0 -1.5642939988088433 2.709436998432005 0.0 0.0 0.0 5.016955" Properties=species:S:1:pos:R:3:spacegroup_kinds:I:1:momenta:R:3:forces:R:3 spacegroup="P 1" unit_cell=conventional occupancy="_JSON {\"0\": {\"Al\": 1}, \"1\": {\"Al\": 1}, \"2\": {\"N\": 1}, \"3\": {\"N\": 1}}" energy=-29.596923828125 free_energy=-29.596923828125 stress="0.015976347029209137 -0.004506077617406845 0.006018614862114191 -0.004506077617406845 -0.025499466806650162 -0.004597126971930265 0.006018614862114191 -0.004597126971930265 -0.010014019906520844" pbc="T T T"
Al       1.53284806       0.86390067       2.51395074        0      -1.59464521      -0.16469651      -1.74991355      -0.27820593       0.89915848      -0.15420638
Al       0.06317844       1.83227865       5.00948383        1       0.38439966      -1.80666609       1.59449948      -0.58708668      -0.41271710       0.16725270
N        1.58572478       0.89623784       4.41422576        2       0.14193225       1.12964946      -0.09119133       0.25704300       0.38076830       0.00228021
N       -0.08152107       1.83862420       1.90381442        3       1.06831337       0.84171306       0.24660529       0.60824984      -0.86720937      -0.01532652
4
Lattice="3.128588 0.0 0.0 -1.5642939988088433 2.709436998432005 0.0 0.0 0.0 5.016955" Properties=species:S:1:pos:R:3:spacegroup_kinds:I:1:momenta:R:3:forces:R:3 spacegroup="P 1" unit_cell=conventional occupancy="_JSON {\"0\": {\"Al\": 1}, \"1\": {\"Al\": 1}, \"2\": {\"N\": 1}, \"3\": {\"N\": 1}}" energy=-29.462553024291992 free_energy=-29.462553024291992 stress="-0.005696955602616072 0.010849346406757832 -0.003906603436917067 0.010849346406757832 -0.019133813679218292 -0.012703176587820053 -0.003906603436917067 -0.012703176587820053 -0.011871437542140484" pbc="T T T"
Al       1.48347329       0.88264394       2.44527927        0      -0.30454542       1.01149469      -0.60004498       0.88392973       0.95768404       1.70776868
Al       0.06164411       1.77681259       5.07306074        1      -0.86715243      -0.75617432       0.43048847      -0.30080634       0.71655196      -1.72279966
N        1.61717714       0.94947182       4.40498426        2       0.38645856       0.04830126       0.18623284      -0.07234007      -0.67485863       0.48910773
N       -0.01486932       1.85626149       1.92266698        3       0.78523934      -0.30362171      -0.01667648      -0.51078349      -0.99937749      -0.47407663
4
Lattice="3.128588 0.0 0.0 -1.5642939988088433 2.709436998432005 0.0 0.0 0.0 5.016955" Properties=species:S:1:pos:R:3:spacegroup_kinds:I:1:momenta:R:3:forces:R:3 spacegroup="P 1" unit_cell=conventional occupancy="_JSON {\"0\": {\"Al\": 1}, \"1\": {\"Al\": 1}, \"2\": {\"N\": 1}, \"3\": {\"N\": 1}}" energy=-29.518749237060547 free_energy=-29.518749237060547 stress="-0.023370645940303802 0.006540061440318823 -0.0160982608795166 0.006540061440318823 0.006697566248476505 -0.0004824080388061702 -0.0160982608795166 -0.0004824080388061702 -0.022161273285746574" pbc="T T T"
Al       1.50607636       0.94974317       2.46463697        0       1.15921311       0.62635224       1.50689960       1.24247527      -0.60704577       1.15697372
Al       0.01335472       1.75088039       5.06242872        1      -0.91111978       0.14825245      -0.88962711       0.51474404       0.69610560      -1.43088925
N        1.62637959       0.90489621       4.42127857        2      -0.14223579      -0.64065025       0.21498387      -0.71771598      -0.51824158      -0.07984856
N        0.02538012       1.82158367       1.88963025        3      -0.10585747      -0.13395452      -0.83225645      -1.03950334       0.42918172       0.35376433
4
Lattice="3.128588 0.0 0.0 -1.5642939988088433 2.709436998432005 0.0 0.0 0.0 5.016955" Properties=species:S:1:pos:R:3:spacegroup_kinds:I:1:momenta:R:3:forces:R:3 spacegroup="P 1" unit_cell=conventional occupancy="_JSON {\"0\": {\"Al\": 1}, \"1\": {\"Al\": 1}, \"2\": {\"N\": 1}, \"3\": {\"N\": 1}}" energy=-29.605009078979492 free_energy=-29.605009078979492 stress="0.0015958009753376245 -0.006785878445953131 -0.0030952859669923782 -0.006785878445953131 0.0017805598909035325 0.0017242751782760024 -0.0030952859669923782 0.0017242751782760024 -0.023114066570997238" pbc="T T T"
Al       1.56693923       0.93861029       2.54470910        0       1.44875357      -0.98943798       1.48437358      -0.01659303      -0.29131666      -1.20301783
Al      -0.01304567       1.78057345       4.99752448        1       0.01689783       1.11024970      -1.70729976       0.38438505       0.02358350       0.50762659
N        1.58384202       0.87104972       4.42155574        2      -0.67927460      -0.02704932      -0.19037177      -0.39236659       0.15177897      -0.39792979
N        0.00122215       1.81989277       1.85992055        3      -0.78637675      -0.09376242       0.41329784       0.02457465       0.11595443       1.09332085
4
Lattice="3.128588 0.0 0.0 -1.5642939988088433 2.709436998432005 0.0 0.0 0.0 5.016955" Properties=species:S:1:pos:R:3:spacegroup_kinds:I:1:momenta:R:3:forces:R:3 spacegroup="P 1" unit_cell=conventional occupancy="_JSON {\"0\": {\"Al\": 1}, \"1\": {\"Al\": 1}, \"2\": {\"N\": 1}, \"3\": {\"N\": 1}}" energy=-29.470205307006836 free_energy=-29.470205307006836 stress="0.003203206928446889 -0.017801590263843536 0.01183835044503212 -0.017801590263843536 -0.04134919121861458 0.007359868846833706 0.01183835044503212 0.007359868846833706 -0.005160290282219648" pbc="T T T"
Al       1.62755627       0.89950078       2.54516750        0       1.04970774      -0.99981873      -0.80202941      -1.41065240       0.15933271      -0.91778761
Al      -0.00757056       1.81703571       4.95606285        1      -0.03757992       0.11959873      -0.16512688      -0.26242751      -0.84351337       1.41445589
N        1.52756234       0.85151205       4.42065483        2      -0.42752188       0.29023042      -0.07965784       0.31765923       0.98894429      -0.00115309
N       -0.06966664       1.84442108       1.93994534        3      -0.58460590       0.58998957       1.04681402       1.35542083      -0.30476397      -0.49551508
4
Lattice="3.128588 0.0 0.0 -1.5642939988088433 2.709436998432005 0.0 0.0 0.0 5.016955" Properties=species:S:1:pos:R:3:spacegroup_kinds:I:1:momenta:R:3:forces:R:3 spacegroup="P 1" unit_cell=conventional occupancy="_JSON {\"0\": {\"Al\": 1}, \"1\": {\"Al\": 1}, \"2\": {\"N\": 1}, \"3\": {\"N\": 1}}" energy=-29.45298957824707 free_energy=-29.45298957824707 stress="-0.013224996626377106 -0.0237499438226223 0.007911480031907558 -0.0237499438226223 -0.04793194681406021 -0.0073333680629730225 0.007911480031907558 -0.0073333680629730225 0.028633005917072296" pbc="T T T"
Al       1.63184039       0.85684027       2.46693548        0      -0.97589013      -0.55899566      -1.34838318      -1.39009786       1.11026382       1.17303979
Al      -0.02377745       1.82170282       4.98999600        1      -0.28018852       0.45883557       1.28013473      -0.08532314       0.08283268       0.34697095
N        1.52792700       0.92957747       4.44479003        2       0.11446477       0.97873183       0.08012610       0.22035891      -0.17398529       0.05598798
N       -0.04718867       1.83921500       2.00086008        3       1.14161387      -0.87857175      -0.01187769       1.25506210      -1.01911128      -1.57599866
4
Lattice="3.128588 0.0 0.0 -1.5642939988088433 2.709436998432005 0.0 0.0 0.0 5.016955" Properties=species:S:1:pos:R:3:spacegroup_kinds:I:1:momenta:R:3:forces:R:3 spacegroup="P 1" unit_cell=conventional occupancy="_JSON {\"0\": {\"Al\": 1}, \"1\": {\"Al\": 1}, \"2\": {\"N\": 1}, \"3\": {\"N\": 1}}" energy=-29.53631591796875 free_energy=-29.53631591796875 stress="-0.019857527688145638 0.013829036615788937 -0.005717344582080841 0.013829036615788937 -0.0031639186199754477 -0.001670996192842722 -0.005717344582080841 -0.001670996192842722 -0.006260544992983341" pbc="T T T"
Al       1.56291510       0.86348346       2.43836896        0      -1.44558744       0.38889106       0.34074945       0.67285907       0.11609273       1.45909572
Al      -0.01834142       1.83613136       5.05736569        1       0.19731501      -0.00921600       1.04742103       0.06595182       0.15003686      -1.19267392
N        1.54726698       0.95741145       4.47045642        2      -0.01024006       0.05685078       0.14844053       0.09761479      -0.44421017      -0.65174830
N        0.05576964       1.77068664       1.90062723        3       1.25851248      -0.43652580      -1.53661101      -0.83642578       0.17808065       0.38532615
4
Lattice="3.128588 0.0 0.0 -1.5642939988088433 2.709436998432005 0.0 0.0 0.0 5.016955" Properties=species:S:1:pos:R:3:spacegroup_kinds:I:1:momenta:R:3:forces:R:3 spacegroup="P 1" unit_cell=conventional occupancy="_JSON {\"0\": {\"Al\": 1}, \"1\": {\"Al\": 1}, \"2\": {\"N\": 1}, \"3\": {\"N\": 1}}" energy=-29.5310001373291 free_energy=-29.5310001373291 stress="-0.01829402893781662 0.01570756733417511 -0.011607744731009007 0.01570756733417511 0.003148091956973076 0.004605703521519899 -0.011607744731009007 0.004605703521519899 -0.017258908599615097" pbc="T T T"
Al       1.54701078       0.87273545       2.46070912        0       0.71855693      -0.11584308       0.49435321       1.07476795      -0.28505862       1.06925428
Al      -0.01761627       1.84389392       5.05391118        1       0.19346441       0.17720411      -0.69190195       0.23187745      -0.07941963      -1.16825128
N        1.56395351       0.94331123       4.45961400        2       0.32487410      -0.12409412      -0.51346197      -0.11547165      -0.20503239      -0.72920144
N        0.06831348       1.75176763       1.87546339        3      -1.23689538       0.06273309       0.71101070      -1.19117355       0.56951082       0.82819831
4
Lattice="3.128588 0.0 0.0 -1.5642939988088433 2.709436998432005 0.0 0.0 0.0 5.016955" Properties=species:S:1:pos:R:3:spacegroup_kinds:I:1:momenta:R:3:forces:R:3 spacegroup="P 1" unit_cell=conventional occupancy="_JSON {\"0\": {\"Al\": 1}, \"1\": {\"Al\": 1}, \"2\": {\"N\": 1}, \"3\": {\"N\": 1}}" energy=-29.61321258544922 free_energy=-29.61321258544922 stress="-0.008381456136703491 -0.00427682651206851 0.005492866970598698 -0.00427682651206851 -0.013937180861830711 0.0014804964885115623 0.005492866970598698 0.0014804964885115623 0.01247529499232769" pbc="T T T"
Al       1.57767910       0.87033378       2.48321562        0       0.42145843      -0.10086043       0.75449472      -0.50598919       0.14215368       0.64867616
Al       0.00878683       1.84488738       5.00616575        1       0.94842535       0.04829675      -0.67234737      -0.28190887      -0.37569776       0.05942831
N        1.54733734       0.91884313       4.41695260        2      -0.50233589      -0.06173859      -0.86681645       0.26756656       0.16352588       0.34766722
N       -0.02491941       1.77881439       1.96659670        3      -0.86754784       0.11430225       0.78466909       0.52033150       0.07001821      -1.05577135
4
Lattice="3.128588 0.0 0.0 -1.5642939988088433 2.709436998432005 0.0 0.0 0.0 5.016955" Properties=species:S:1:pos:R:3:spacegroup_kinds:I:1:momenta:R:3:forces:R:3 spacegroup="P 1" unit_cell=conventional occupancy="_JSON {\"0\": {\"Al\": 1}, \"1\": {\"Al\": 1}, \"2\": {\"N\": 1}, \"3\": {\"N\": 1}}" energy=-29.55784034729004 free_energy=-29.55784034729004 stress="-0.01636401191353798 -0.002947824774309993 0.012903766706585884 -0.002947824774309993 -0.006207924336194992 0.00153765466529876 0.012903766706585884 0.00153765466529876 -0.0027145463973283768" pbc="T T T"
Al       1.59068814       0.88023426       2.52274589        0      -0.41625593       0.17886988       0.33160919      -0.90884566      -0.14030918      -0.36867726
Al       0.01872292       1.83477376       4.97781987        1       0.14973931      -0.20763019      -0.17578558      -0.72829711      -0.10046473       0.72652429
N        1.52039170       0.92489994       4.39464374        2       0.19754415       0.25939852       0.47781762       0.72475880      -0.09604933       0.71574056
N       -0.04216861       1.77342030       1.96745698        3       0.06897249      -0.23063819      -0.63364125       0.91238397       0.33682328      -1.07358718
4
Lattice="3.128588 0.0 0.0 -1.5642939988088433 2.709436998432005 0.0 0.0 0.0 5.016955" Properties=species:S:1:pos:R:3:spacegroup_kinds:I:1:momenta:R:3:forces:R:3 spacegroup="P 1" unit_cell=conventional occupancy="_JSON {\"0\": {\"Al\": 1}, \"1\": {\"Al\": 1}, \"2\": {\"N\": 1}, \"3\": {\"N\": 1}}" energy=-29.621110916137695 free_energy=-29.621110916137695 stress="-0.021500810980796814 0.005276471842080355 -0.0032673885580152273 0.005276471842080355 0.010657591745257378 0.0019249264150857925 -0.0032673885580152273 0.0019249264150857925 -0.0015898093115538359" pbc="T T T"
Al       1.54767652       0.89587759       2.50832859        0      -0.85809954       0.46896532      -1.00003207       0.39160234      -0.39029050      -0.15032662
Al       0.00665801       1.82067515       5.00342495        1      -0.72966961      -0.11082634       1.46536914      -0.00949520       0.22696730       0.34863028
N        1.57185933       0.94293295       4.45440717        2       0.62349880      -0.37686519       0.64593173      -0.01970091      -0.43335059      -0.83890092
N        0.01256033       1.75229424       1.88600533        3       0.96427035       0.01872621      -1.11126882      -0.36240634       0.59667373       0.64059758
4
Lattice="3.128588 0.0 0.0 -1.5642939988088433 2.709436998432005 0.0 0.0 0.0 5.016955" Properties=species:S:1:pos:R:3:spacegroup_kinds:I:1:momenta:R:3:forces:R:3 spacegroup="P 1" unit_cell=conventional occupancy="_JSON {\"0\": {\"Al\": 1}, \"1\": {\"Al\": 1}, \"2\": {\"N\": 1}, \"3\": {\"N\": 1}}" energy=-29.520856857299805 free_energy=-29.520856857299805 stress="-0.014047431759536266 0.011820964515209198 -0.014255599118769169 0.011820964515209198 -0.005614656955003738 0.009361440315842628 -0.014255599118769169 0.009361440315842628 -0.019570928066968918" pbc="T T T"
Al       1.52999431       0.91403915       2.46474568        0       0.09545085      -0.23101198      -1.18071372       1.21875310      -0.63576901       0.99289685
Al      -0.00890655       1.82180733       5.05208970        1       0.31216954      -0.10747473       0.45537683       0.39472836      -0.38378534      -1.12710142
N        1.59437713       0.88605552       4.45928982        2      -0.04799061      -0.53350281      -0.20523204      -0.40810603       0.35579014      -0.79021603
N        0.05384448       1.77207217       1.87144998        3      -0.35962981       0.87198949       0.93056891      -1.20537519       0.66376430       0.92442036
4
Lattice="3.128588 0.0 0.0 -1.5642939988088433 2.709436998432005 0.0 0.0 0.0 5.016955" Properties=species:S:1:pos:R:3:spacegroup_kinds:I:1:momenta:R:3:forces:R:3 spacegroup="P 1" unit_cell=conventional occupancy="_JSON {\"0\": {\"Al\": 1}, \"1\": {\"Al\": 1}, \"2\": {\"N\": 1}, \"3\": {\"N\": 1}}" energy=-29.61878776550293 free_energy=-29.61878776550293 stress="0.010117750614881516 -0.001821999903768301 -0.0018730942392721772 -0.001821999903768301 -0.02478315867483616 0.004591152537614107 -0.0018730942392721772 0.004591152537614107 2.6338164389017038e-05" pbc="T T T"
Al       1.53818034       0.90928017       2.47247629        0       0.23228523      -0.27447289       1.41733356       0.21200997       0.18702316       0.85530770
Al       0.01802693       1.81430743       5.03506515        1       0.60360878      -0.42930276      -1.11140950       0.03760348      -0.69444323      -0.55142564
N        1.59518010       0.85128048       4.42414649        2       0.09084555       0.02420722      -0.77345411      -0.19470432       0.84070778       0.01228164
N       -0.01452980       1.83034431       1.92467355        3      -0.92673961       0.67956844       0.46753008      -0.05490929      -0.33328766      -0.31616372
4
Lattice="3.128588 0.0 0.0 -1.5642939988088433 2.709436998432005 0.0 0.0 0.0 5.016955" Properties=species:S:1:pos:R:3:spacegroup_kinds:I:1:momenta:R:3:forces:R:3 spacegroup="P 1" unit_cell=conventional occupancy="_JSON {\"0\": {\"Al\": 1}, \"1\": {\"Al\": 1}, \"2\": {\"N\": 1}, \"3\": {\"N\": 1}}" energy=-29.623741149902344 free_energy=-29.623741149902344 stress="0.004300429951399565 -0.008672618307173252 0.0028819891158491373 -0.008672618307173252 -0.006943858228623867 -0.004434386268258095 0.0028819891158491373 -0.004434386268258095 -0.014839001931250095" pbc="T T T"
Al       1.54321204       0.89379621       2.53645982        0      -0.00705447      -0.41529180       0.79444980      -0.25250009       0.39302972      -0.87834632
Al       0.03580903       1.79893953       4.98957802        1       0.09337936      -0.29525109      -0.61191909      -0.16601539       0.14057930       0.62745541
N        1.59619751       0.90645096       4.40111851        2      -0.02189820       1.09350650       0.27120753      -0.08899378      -0.09593426       0.34911457
N       -0.05911258       1.83464205       1.91219264        3      -0.06442673      -0.38296362      -0.45373824       0.50750923      -0.43767476      -0.09822375
