4
Lattice="3.128588 0.0 0.0 -1.5642939988088433 2.709436998432005 0.0 0.0 0.0 5.016955" Properties=species:S:1:pos:R:3:spacegroup_kinds:I:1:forces:R:3 spacegroup="P 1" unit_cell=conventional occupancy="_JSON {\"0\": {\"Al\": 1}, \"1\": {\"Al\": 1}, \"2\": {\"N\": 1}, \"3\": {\"N\": 1}}" energy=-29.673717498779297 free_energy=-29.673717498779297 stress="-0.0022255138028413057 -1.369192204947467e-06 -1.378498293291841e-08 -1.369192204947467e-06 -0.0022276691161096096 -2.4953170196795327e-08 -1.378498293291841e-08 -2.4953170196795327e-08 -0.005453684367239475" pbc="T T T"
Al       1.56429556       0.90314476       2.50490041        0      -0.00003370       0.00002039       0.00553180
Al      -0.00000156       1.80629224       5.01337791        1       0.00003413      -0.00002055       0.00552482
N        1.56429556       0.90314476       4.41849749        2      -0.00003587       0.00002097      -0.00553050
N       -0.00000156       1.80629224       1.91001999        3       0.00003544      -0.00002088      -0.00552598
