32
Lattice="6.17176593 0.0 0.0 0.0 8.01859859 0.0 0.0 0.0 13.03281824" Properties=species:S:1:pos:R:3:spacegroup_kinds:I:1:forces:R:3 spacegroup="P 1" unit_cell=conventional occupancy="_JSON {\"0\": {\"Li\": 1}, \"1\": {\"Li\": 1}, \"2\": {\"Li\": 1}, \"3\": {\"Li\": 1}, \"4\": {\"Li\": 1}, \"5\": {\"Li\": 1}, \"6\": {\"Li\": 1}, \"7\": {\"Li\": 1}, \"8\": {\"Li\": 1}, \"9\": {\"Li\": 1}, \"10\": {\"Li\": 1}, \"11\": {\"Li\": 1}, \"12\": {\"P\": 1}, \"13\": {\"P\": 1}, \"14\": {\"P\": 1}, \"15\": {\"P\": 1}, \"16\": {\"S\": 1}, \"17\": {\"S\": 1}, \"18\": {\"S\": 1}, \"19\": {\"S\": 1}, \"20\": {\"S\": 1}, \"21\": {\"S\": 1}, \"22\": {\"S\": 1}, \"23\": {\"S\": 1}, \"24\": {\"S\": 1}, \"25\": {\"S\": 1}, \"26\": {\"S\": 1}, \"27\": {\"S\": 1}, \"28\": {\"S\": 1}, \"29\": {\"S\": 1}, \"30\": {\"S\": 1}, \"31\": {\"S\": 1}}" energy=-140.3463134765625 free_energy=-140.3463134765625 stress="-0.002888616407290101 -1.3782487373603658e-09 -1.0997167620985238e-08 -1.3782487373603658e-09 -0.004072252660989761 2.789526298840883e-08 -1.0997167620985238e-08 2.789526298840883e-08 -0.0025935948360711336" pbc="T T T"
Li       2.40166815       0.26892251       4.33377962        0      -0.01549057       0.00236092       0.00063413
Li       3.77009794       7.74967602       8.69903847        1       0.01548984      -0.00236107      -0.00063166
Li       5.48755109       7.74967608       2.18262937        2      -0.01549282      -0.00236014      -0.00063197
Li       0.68421477       0.26892249      10.85018869        3       0.01549065       0.00235990       0.00063206
Li       3.77009790       4.27822191       8.69903842        4       0.01548850       0.00235841      -0.00063325
Li       2.40166818       3.74037677       4.33377961        5      -0.01548964      -0.00236044       0.00063379
Li       0.68421482       3.74037680      10.85018869        6       0.01549142      -0.00236005       0.00063170
Li       5.48755100       4.27822187       2.18262941        7      -0.01549245       0.00236062      -0.00062951
Li       3.08588291      -0.00000007       0.00000010        8      -0.00000101       0.00000091      -0.00000026
Li       0.00000005      -0.00000008       6.51640922        9       0.00000077       0.00000328      -0.00000198
Li       3.08588295       4.00929930       0.00000000       10      -0.00000219      -0.00000195      -0.00000018
Li      -0.00000000       4.00929930       6.51640927       11       0.00000005       0.00000085      -0.00000026
P        0.93932955       2.00464935       1.16793473       12      -0.00066672       0.00000859       0.03303440
P        5.23243624       6.01394877      11.86488420       13       0.00067184       0.00000109      -0.03306347
P        4.02521220       6.01394903       5.34847533       14      -0.00065013      -0.00000001      -0.03306184
P        2.14655385       2.00464970       7.68434328       15       0.00065266      -0.00000136       0.03305333
S        5.07612353       2.00464968       1.30682515       16       0.00280134      -0.00000026       0.01274884
S        1.09564246       6.01394880      11.72599293       17      -0.00280923       0.00000005      -0.01274560
S        1.99024091       6.01394892       5.20958389       18       0.00279274       0.00000136      -0.01274423
S        4.18152505       2.00464959       7.82323420       19      -0.00279264       0.00000173       0.01274807
S        1.68772175       2.00464970      12.25093559       20       0.03397105      -0.00000037       0.02524924
S        4.48404413       6.01394888       0.78188254       21      -0.03397278       0.00000070      -0.02523586
S        4.77360475       6.01394894       7.29829162       22       0.03397191       0.00000073      -0.02523711
S        1.39816132       2.00464968       5.73452688       23      -0.03397352      -0.00000031       0.02524003
S        1.68016698       0.28147989       2.00960388       24       0.02273558      -0.00259512      -0.01691859
S        4.49159894       7.73711938      11.02321406       25      -0.02272947       0.00258573       0.01692640
S        4.76604996       7.73711928       4.50680504       26       0.02272865       0.00258054       0.01692858
S        1.40571570       0.28147947       8.52601308       27      -0.02272705      -0.00258641      -0.01692786
S        4.49159898       4.29077879      11.02321423       28      -0.02272975      -0.00258590       0.01692444
S        1.68016715       3.72781975       2.00960393       29       0.02273088       0.00258518      -0.01692322
S        1.40571574       3.72781977       8.52601312       30      -0.02272699       0.00258463      -0.01692683
S        4.76605000       4.29077856       4.50680504       31       0.02272912      -0.00258181       0.01692867
