32
Lattice="6.17176593 0.0 0.0 0.0 8.01859859 0.0 0.0 0.0 13.03281824" Properties=species:S:1:pos:R:3:spacegroup_kinds:I:1:forces:R:3 spacegroup="P 1" unit_cell=conventional occupancy="_JSON {\"0\": {\"Li\": 1}, \"1\": {\"Li\": 1}, \"2\": {\"Li\": 1}, \"3\": {\"Li\": 1}, \"4\": {\"Li\": 1}, \"5\": {\"Li\": 1}, \"6\": {\"Li\": 1}, \"7\": {\"Li\": 1}, \"8\": {\"Li\": 1}, \"9\": {\"Li\": 1}, \"10\": {\"Li\": 1}, \"11\": {\"Li\": 1}, \"12\": {\"P\": 1}, \"13\": {\"P\": 1}, \"14\": {\"P\": 1}, \"15\": {\"P\": 1}, \"16\": {\"S\": 1}, \"17\": {\"S\": 1}, \"18\": {\"S\": 1}, \"19\": {\"S\": 1}, \"20\": {\"S\": 1}, \"21\": {\"S\": 1}, \"22\": {\"S\": 1}, \"23\": {\"S\": 1}, \"24\": {\"S\": 1}, \"25\": {\"S\": 1}, \"26\": {\"S\": 1}, \"27\": {\"S\": 1}, \"28\": {\"S\": 1}, \"29\": {\"S\": 1}, \"30\": {\"S\": 1}, \"31\": {\"S\": 1}}" energy=-140.3463134765625 free_energy=-140.3463134765625 stress="-0.002888614311814308 -1.1830160850934135e-08 -3.674001192166543e-08 -1.1830160850934135e-08 -0.004072240088135004 -5.846640505069445e-09 -3.674001192166543e-08 -5.846640505069445e-09 -0.0025936078745871782" pbc="T T T"
Li       2.40166816       0.26892253       4.33377961        0      -0.01549022       0.00236090       0.00063351
Li       3.77009792       7.74967604       8.69903848        1       0.01548978      -0.00236099      -0.00063268
Li       5.48755104       7.74967601       2.18262937        2      -0.01549196      -0.00235979      -0.00063314
Li       0.68421471       0.26892249      10.85018873        3       0.01549380       0.00236360       0.00063323
Li       3.77009792       4.27822186       8.69903847        4       0.01548837       0.00235818      -0.00063359
Li       2.40166814       3.74037678       4.33377957        5      -0.01548827      -0.00235965       0.00063258
Li       0.68421474       3.74037679      10.85018873        6       0.01549311      -0.00236187       0.00063393
Li       5.48755102       4.27822188       2.18262940        7      -0.01549225       0.00235994      -0.00062940
Li       3.08588292      -0.00000014       0.00000012        8      -0.00000249       0.00000156       0.00000104
Li       0.00000008      -0.00000010       6.51640918        9       0.00000017       0.00000207      -0.00000016
Li       3.08588290       4.00929936       0.00000008       10      -0.00000197      -0.00000213       0.00000170
Li       0.00000005       4.00929933       6.51640914       11      -0.00000044      -0.00000198      -0.00000022
P        0.93932962       2.00464962       1.16793482       12      -0.00066919      -0.00000134       0.03303697
P        5.23243636       6.01394895      11.86488436       13       0.00066999      -0.00000010      -0.03305516
P        4.02521222       6.01394898       5.34847527       14      -0.00065358       0.00000086      -0.03306498
P        2.14655387       2.00464968       7.68434322       15       0.00065143       0.00000029       0.03304835
S        5.07612349       2.00464960       1.30682517       16       0.00280080       0.00000005       0.01274654
S        1.09564258       6.01394897      11.72599301       17      -0.00280997      -0.00000161      -0.01274542
S        1.99024090       6.01394886       5.20958387       18       0.00279292      -0.00000112      -0.01274443
S        4.18152511       2.00464963       7.82323416       19      -0.00279263      -0.00000021       0.01275018
S        1.68772176       2.00464962      12.25093556       20       0.03397224      -0.00000026       0.02524597
S        4.48404411       6.01394895       0.78188260       21      -0.03397310       0.00000060      -0.02523661
S        4.77360476       6.01394896       7.29829160       22       0.03397111       0.00000023      -0.02524097
S        1.39816133       2.00464967       5.73452690       23      -0.03397209       0.00000057       0.02524146
S        1.68016697       0.28147980       2.00960391       24       0.02273405      -0.00259107      -0.01692073
S        4.49159897       7.73711939      11.02321403       25      -0.02272831       0.00258481       0.01692560
S        4.76604994       7.73711932       4.50680502       26       0.02272890       0.00258154       0.01693022
S        1.40571575       0.28147952       8.52601313       27      -0.02272670      -0.00258514      -0.01692762
S        4.49159890       4.29077848      11.02321402       28      -0.02272844      -0.00258612       0.01692414
S        1.68016708       3.72781963       2.00960391       29       0.02273340       0.00259256      -0.01692331
S        1.40571571       3.72781980       8.52601312       30      -0.02272762       0.00258689      -0.01692742
S        4.76604996       4.29077859       4.50680506       31       0.02272905      -0.00258143       0.01693004
