4
Lattice="3.128588 0.0 0.0 -1.5642939988088433 2.709436998432005 0.0 0.0 0.0 5.016955" Properties=species:S:1:pos:R:3:spacegroup_kinds:I:1:forces:R:3 spacegroup="P 1" unit_cell=conventional occupancy="_JSON {\"0\": {\"Al\": 1}, \"1\": {\"Al\": 1}, \"2\": {\"N\": 1}, \"3\": {\"N\": 1}}" energy=-29.673717498779297 free_energy=-29.673717498779297 stress="-0.0022252127528190613 -1.3921229538027546e-06 -4.504216022382934e-08 -1.3921229538027546e-06 -0.0022272421047091484 -5.687987325586619e-08 -4.504216022382934e-08 -5.687987325586619e-08 -0.0054536606185138226" pbc="T T T"
Al       1.56429556       0.90314476       2.50490041        0      -0.00003541       0.00002067       0.00553215
Al      -0.00000156       1.80629224       5.01337791        1       0.00003599      -0.00001907       0.00552401
N        1.56429556       0.90314476       4.41849749        2      -0.00003749       0.00001969      -0.00553066
N       -0.00000156       1.80629224       1.91001999        3       0.00003697      -0.00002118      -0.00552548
