4
Lattice="3.128588 0.0 0.0 -1.5642939988088433 2.709436998432005 0.0 0.0 0.0 5.016955" Properties=species:S:1:pos:R:3:spacegroup_kinds:I:1:forces:R:3 spacegroup="P 1" unit_cell=conventional occupancy="_JSON {\"0\": {\"Al\": 1}, \"1\": {\"Al\": 1}, \"2\": {\"N\": 1}, \"3\": {\"N\": 1}}" energy=-29.673717498779297 free_energy=-29.673717498779297 stress="-0.0022254709620028734 -1.404364866175456e-06 1.6147534864785484e-08 -1.404364866175456e-06 -0.002227575285360217 -4.689839983029742e-08 1.6147534864785484e-08 -4.689839983029742e-08 -0.005453657358884811" pbc="T T T"
Al       1.56429556       0.90314476       2.50490041        0      -0.00003536       0.00002026       0.00553199
Al      -0.00000156       1.80629224       5.01337791        1       0.00003449      -0.00002051       0.00552490
N        1.56429556       0.90314476       4.41849749        2      -0.00003625       0.00002099      -0.00553084
N       -0.00000156       1.80629224       1.91001999        3       0.00003710      -0.00002081      -0.00552566
