4
Lattice="3.128588 0.0 0.0 -1.5642939988088433 2.709436998432005 0.0 0.0 0.0 5.016955" Properties=species:S:1:pos:R:3:spacegroup_kinds:I:1:forces:R:3 spacegroup="P 1" unit_cell=conventional occupancy="_JSON {\"0\": {\"Al\": 1}, \"1\": {\"Al\": 1}, \"2\": {\"N\": 1}, \"3\": {\"N\": 1}}" energy=-29.673717498779297 free_energy=-29.673717498779297 stress="-0.0022255077492445707 -1.3486109082805342e-06 7.431700144167053e-09 -1.3486109082805342e-06 -0.002227311721071601 -2.1083247148112605e-08 7.431700144167053e-09 -2.1083247148112605e-08 -0.005453702062368393" pbc="T T T"
Al       1.56429556       0.90314476       2.50490041        0      -0.00003395       0.00001983       0.00553253
Al      -0.00000156       1.80629224       5.01337791        1       0.00003484      -0.00001982       0.00552373
N        1.56429556       0.90314476       4.41849749        2      -0.00003653       0.00002026      -0.00553159
N       -0.00000156       1.80629224       1.91001999        3       0.00003549      -0.00002018      -0.00552458
