4
Lattice="3.128588 0.0 0.0 -1.5642939988088433 2.709436998432005 0.0 0.0 0.0 5.016955" Properties=species:S:1:pos:R:3:spacegroup_kinds:I:1:momenta:R:3:forces:R:3 spacegroup="P 1" unit_cell=conventional occupancy="_JSON {\"0\": {\"Al\": 1}, \"1\": {\"Al\": 1}, \"2\": {\"N\": 1}, \"3\": {\"N\": 1}}" energy=-29.62374496459961 free_energy=-29.62374496459961 stress="0.004300309345126152 -0.008672768250107765 0.0028822750318795443 -0.008672768250107765 -0.006944033782929182 -0.004434820730239153 0.0028822750318795443 -0.004434820730239153 -0.014838486909866333" pbc="T T T"
Al       1.54321203       0.89379621       2.53645979        0      -0.00705394      -0.41529108       0.79445005      -0.25250405       0.39303118      -0.87833488
Al       0.03580900       1.79893952       4.98957809        1       0.09337911      -0.29525144      -0.61191883      -0.16601488       0.14058037       0.62744623
N        1.59619752       0.90645093       4.40111852        2      -0.02189796       1.09350675       0.27120825      -0.08899470      -0.09593681       0.34910315
N       -0.05911261       1.83464210       1.91219260        3      -0.06442723      -0.38296425      -0.45373954       0.50751376      -0.43767464      -0.09821457
