4
Lattice="3.128588 0.0 0.0 -1.5642939988088433 2.709436998432005 0.0 0.0 0.0 5.016955" Properties=species:S:1:pos:R:3:spacegroup_kinds:I:1:momenta:R:3:forces:R:3 spacegroup="P 1" unit_cell=conventional occupancy="_JSON {\"0\": {\"Al\": 1}, \"1\": {\"Al\": 1}, \"2\": {\"N\": 1}, \"3\": {\"N\": 1}}" energy=-29.673715591430664 free_energy=-29.673715591430664 stress="-0.0022253128699958324 -1.327554059571412e-06 8.74922001514733e-09 -1.327554059571412e-06 -0.00222731102257967 -2.5099726741473205e-08 8.74922001514733e-09 -2.5099726741473205e-08 -0.005453713238239288" pbc="T T T"
Al       1.56429556       0.90314476       2.50490041        0       0.68448204       0.53670047       0.91071479      -0.00003489       0.00001942       0.00553212
Al      -0.00000156       1.80629224       5.01337791        1       0.31075784       0.39520501      -1.87833745       0.00003480      -0.00002056       0.00552338
N        1.56429556       0.90314476       4.41849749        2      -0.23293981      -0.79739853      -0.40745139      -0.00003641       0.00002111      -0.00553063
N       -0.00000156       1.80629224       1.91001999        3      -0.76230006      -0.13450696       1.37507406       0.00003643      -0.00001999      -0.00552465
4
Lattice="3.128588 0.0 0.0 -1.5642939988088433 2.709436998432005 0.0 0.0 0.0 5.016955" Properties=species:S:1:pos:R:3:spacegroup_kinds:I:1:momenta:R:3:forces:R:3 spacegroup="P 1" unit_cell=conventional occupancy="_JSON {\"0\": {\"Al\": 1}, \"1\": {\"Al\": 1}, \"2\": {\"N\": 1}, \"3\": {\"N\": 1}}" energy=-29.43359375 free_energy=-29.43359375 stress="-0.01377339381724596 -0.016446439549326897 0.012948798947036266 -0.016446439549326897 -0.02396860159933567 0.009969733655452728 0.012948798947036266 0.009969733655452728 -0.012059459462761879" pbc="T T T"
Al       1.60246141       0.92231283       2.54150848        0       0.57498222      -0.13492007       1.02882466      -1.31301451      -0.49033475      -0.87831450
Al       0.00328788       1.81111139       4.94718774        1      -0.44725798       0.00118053      -1.07867298      -0.30154160      -0.59423327       1.18011856
N        1.53678588       0.85870779       4.38099594        2       0.14052026      -0.46066721       0.20203857       0.28490743       0.67984539       1.25553703
N       -0.05228245       1.80432671       2.00436659        3      -0.26824450       0.59440675      -0.15219027       1.32964849       0.40472248      -1.55734110
4
Lattice="3.128588 0.0 0.0 -1.5642939988088433 2.709436998432005 0.0 0.0 0.0 5.016955" Properties=species:S:1:pos:R:3:spacegroup_kinds:I:1:momenta:R:3:forces:R:3 spacegroup="P 1" unit_cell=conventional occupancy="_JSON {\"0\": {\"Al\": 1}, \"1\": {\"Al\": 1}, \"2\": {\"N\": 1}, \"3\": {\"N\": 1}}" energy=-29.567256927490234 free_energy=-29.567256927490234 stress="0.012915789149701595 0.0017025632550939918 0.003579383483156562 0.0017025632550939918 -0.025856878608465195 -0.0053691077046096325 0.003579383483156562 -0.0053691077046096325 -0.011435276828706264" pbc="T T T"
Al       1.59598186       0.90138485       2.55101264        0      -0.85003990      -0.64755178      -0.41676305      -0.33522835       0.74370217      -1.26921237
Al      -0.01311800       1.79082858       4.96769658        1      -0.24557046      -0.74327779       1.65595794      -0.18280323      -0.17026731       1.21499705
N        1.52960409       0.86779352       4.41996341        2       0.16413089       0.60763573       0.63654574       0.31887791       0.39321384      -0.09056927
N       -0.00060095       1.87475190       1.90756519        3       0.93147943       0.78319382      -1.87574064       0.19915357      -0.96664870       0.14478476
4
Lattice="3.128588 0.0 0.0 -1.5642939988088433 2.709436998432005 0.0 0.0 0.0 5.016955" Properties=species:S:1:pos:R:3:spacegroup_kinds:I:1:momenta:R:3:forces:R:3 spacegroup="P 1" unit_cell=conventional occupancy="_JSON {\"0\": {\"Al\": 1}, \"1\": {\"Al\": 1}, \"2\": {\"N\": 1}, \"3\": {\"N\": 1}}" energy=-29.406274795532227 free_energy=-29.406274795532227 stress="0.010688697919249535 0.016498161479830742 -0.008163963444530964 0.016498161479830742 -0.009423313662409782 -0.01555398665368557 -0.008163963444530964 -0.01555398665368557 -0.06125401705503464" pbc="T T T"
Al       1.53423928       0.87298461       2.51007453        0      -1.60925376       0.09619229      -1.03262260       0.74608684       1.00298667       0.03482381
Al      -0.01349004       1.78470222       5.05709164        1       0.21561249      -0.04339766       1.72443222       0.02271243       0.40732953      -1.66436923
N        1.55208975       0.92225132       4.42203509        2       0.38659369       0.63935773      -0.93002916       0.04495809      -0.39009708      -0.56986141
N        0.09667397       1.88681817       1.81230437        3       1.00704755      -0.69215240       0.23821949      -0.81375730      -1.02021933       2.19940639
4
Lattice="3.128588 0.0 0.0 -1.5642939988088433 2.709436998432005 0.0 0.0 0.0 5.016955" Properties=species:S:1:pos:R:3:spacegroup_kinds:I:1:momenta:R:3:forces:R:3 spacegroup="P 1" unit_cell=conventional occupancy="_JSON {\"0\": {\"Al\": 1}, \"1\": {\"Al\": 1}, \"2\": {\"N\": 1}, \"3\": {\"N\": 1}}" energy=-29.201902389526367 free_energy=-29.201902389526367 stress="-0.02644108235836029 0.03815556690096855 -0.03138243034482002 0.03815556690096855 -0.004877571016550064 0.0015437055844813585 -0.03138243034482002 0.0015437055844813585 -0.05181994289159775" pbc="T T T"
Al       1.49382403       0.87740194       2.48150491        0      -0.08661618      -0.02748793       0.25595580       2.48428106      -0.46186879       1.22611475
Al      -0.02076736       1.79337852       5.08843292        1       0.00716747       0.60209050      -1.27068314       0.64723146       0.57433432      -2.36003947
N        1.60157220       0.96971682       4.33361321        2       0.49437258       0.53651030      -0.17473381      -0.53882313      -0.70145339       1.74608827
N        0.13924905       1.81421451       1.89535167        3      -0.41492386      -1.11111291       1.18946107      -2.59268928       0.58898801      -0.61216366
4
Lattice="3.128588 0.0 0.0 -1.5642939988088433 2.709436998432005 0.0 0.0 0.0 5.016955" Properties=species:S:1:pos:R:3:spacegroup_kinds:I:1:momenta:R:3:forces:R:3 spacegroup="P 1" unit_cell=conventional occupancy="_JSON {\"0\": {\"Al\": 1}, \"1\": {\"Al\": 1}, \"2\": {\"N\": 1}, \"3\": {\"N\": 1}}" energy=-29.57462501525879 free_energy=-29.57462501525879 stress="-0.02361804060637951 -0.014321298338472843 -0.01112796925008297 -0.014321298338472843 0.015029897913336754 -0.002854663413017988 -0.01112796925008297 -0.002854663413017988 -0.01444047037512064" pbc="T T T"
Al       1.53421963       0.88369270       2.53780583        0       1.55944026       0.36820847       1.55970967       0.29264131      -0.24000463      -0.91367960
Al      -0.00048006       1.82107763       4.98837340        1       1.01688538       0.86374270      -2.47525392       0.94369555       0.52251655       0.78486681
N        1.63583965       0.96584649       4.40663185        2      -0.31021869      -0.52489269       1.27117414      -1.15103793      -0.78907287       0.05687790
N       -0.01177524       1.75252280       1.90648730        3      -2.26610698      -0.70705851      -0.35562996      -0.08529884       0.50656098       0.07193480
4
Lattice="3.128588 0.0 0.0 -1.5642939988088433 2.709436998432005 0.0 0.0 0.0 5.016955" Properties=species:S:1:pos:R:3:spacegroup_kinds:I:1:momenta:R:3:forces:R:3 spacegroup="P 1" unit_cell=conventional occupancy="_JSON {\"0\": {\"Al\": 1}, \"1\": {\"Al\": 1}, \"2\": {\"N\": 1}, \"3\": {\"N\": 1}}" energy=-29.3720703125 free_energy=-29.3720703125 stress="-0.005629510618746281 -0.018719298765063286 0.01584949530661106 -0.018719298765063286 -0.03227248042821884 0.017212148755788803 0.01584949530661106 0.017212148755788803 -0.007298132870346308" pbc="T T T"
Al       1.57072833       0.88046441       2.56331973        0      -0.00039281      -0.37629514      -0.57844141      -1.34386349      -0.44065613      -1.50707889
Al       0.05055071       1.86456078       4.94968572        1       0.52727008       0.77034178       1.04960252      -0.49129045      -1.36433196       1.82584727
N        1.58204799       0.88176662       4.44992392        2      -0.27832232      -1.02263406      -0.55459282       0.15003823       1.16375542      -0.85894644
N       -0.12661084       1.75915457       1.88869863        3      -0.24855497       0.62858740       0.08343168       1.68511534       0.64123249       0.54017854
4
Lattice="3.128588 0.0 0.0 -1.5642939988088433 2.709436998432005 0.0 0.0 0.0 5.016955" Properties=species:S:1:pos:R:3:spacegroup_kinds:I:1:momenta:R:3:forces:R:3 spacegroup="P 1" unit_cell=conventional occupancy="_JSON {\"0\": {\"Al\": 1}, \"1\": {\"Al\": 1}, \"2\": {\"N\": 1}, \"3\": {\"N\": 1}}" energy=-29.596923828125 free_energy=-29.596923828125 stress="0.015976499766111374 -0.004506067372858524 0.006018729880452156 -0.004506067372858524 -0.025499438866972923 -0.0045970589853823185 0.006018729880452156 -0.0045970589853823185 -0.010013706982135773" pbc="T T T"
Al       1.53284805       0.86390066       2.51395074        0      -1.59464508      -0.16469633      -1.74991296      -0.27820307       0.89915794      -0.15420519
Al       0.06317842       1.83227865       5.00948382        1       0.38440002      -1.80666586       1.59449892      -0.58708507      -0.41271853       0.16725039
N        1.58572476       0.89623785       4.41422577        2       0.14193167       1.12964917      -0.09119184       0.25704053       0.38076842       0.00228050
N       -0.08152104       1.83862421       1.90381443        3       1.06831332       0.84171301       0.24660586       0.60824746      -0.86720788      -0.01532608
4
Lattice="3.128588 0.0 0.0 -1.5642939988088433 2.709436998432005 0.0 0.0 0.0 5.016955" Properties=species:S:1:pos:R:3:spacegroup_kinds:I:1:momenta:R:3:forces:R:3 spacegroup="P 1" unit_cell=conventional occupancy="_JSON {\"0\": {\"Al\": 1}, \"1\": {\"Al\": 1}, \"2\": {\"N\": 1}, \"3\": {\"N\": 1}}" energy=-29.46255111694336 free_energy=-29.46255111694336 stress="-0.005697084590792656 0.010849538259208202 -0.0039066132158041 0.010849538259208202 -0.01913384161889553 -0.01270315796136856 -0.0039066132158041 -0.01270315796136856 -0.011871330440044403" pbc="T T T"
Al       1.48347329       0.88264394       2.44527929        0      -0.30454489       1.01149498      -0.60004458       0.88393140       0.95768356       1.70777059
Al       0.06164410       1.77681260       5.07306071        1      -0.86715278      -0.75617400       0.43048848      -0.30080628       0.71655351      -1.72280002
N        1.61717709       0.94947182       4.40498424        2       0.38645886       0.04830105       0.18623253      -0.07233981      -0.67486054       0.48910680
N       -0.01486931       1.85626149       1.92266702        3       0.78523875      -0.30362208      -0.01667646      -0.51078546      -0.99937665      -0.47407740
4
Lattice="3.128588 0.0 0.0 -1.5642939988088433 2.709436998432005 0.0 0.0 0.0 5.016955" Properties=species:S:1:pos:R:3:spacegroup_kinds:I:1:momenta:R:3:forces:R:3 spacegroup="P 1" unit_cell=conventional occupancy="_JSON {\"0\": {\"Al\": 1}, \"1\": {\"Al\": 1}, \"2\": {\"N\": 1}, \"3\": {\"N\": 1}}" energy=-29.518747329711914 free_energy=-29.518747329711914 stress="-0.023370854556560516 0.006539974361658096 -0.016098082065582275 0.006539974361658096 0.0066972519271075726 -0.00048245920334011316 -0.016098082065582275 -0.00048245920334011316 -0.02216021902859211" pbc="T T T"
Al       1.50607638       0.94974319       2.46463698        0       1.15921327       0.62635239       1.50689947       1.24247670      -0.60704482       1.15697396
Al       0.01335469       1.75088040       5.06242871        1      -0.91112043       0.14825234      -0.88962666       0.51474816       0.69610691      -1.43088520
N        1.62637959       0.90489619       4.42127855        2      -0.14223507      -0.64065022       0.21498415      -0.71771908      -0.51824319      -0.07984873
N        0.02538008       1.82158363       1.88963028        3      -0.10585781      -0.13395454      -0.83225698      -1.03950596       0.42918119       0.35375953
4
Lattice="3.128588 0.0 0.0 -1.5642939988088433 2.709436998432005 0.0 0.0 0.0 5.016955" Properties=species:S:1:pos:R:3:spacegroup_kinds:I:1:momenta:R:3:forces:R:3 spacegroup="P 1" unit_cell=conventional occupancy="_JSON {\"0\": {\"Al\": 1}, \"1\": {\"Al\": 1}, \"2\": {\"N\": 1}, \"3\": {\"N\": 1}}" energy=-29.605009078979492 free_energy=-29.605009078979492 stress="0.0015958499861881137 -0.006785857491195202 -0.00309520005248487 -0.006785857491195202 0.001780634163878858 0.0017242517787963152 -0.00309520005248487 0.0017242517787963152 -0.02311396785080433" pbc="T T T"
Al       1.56693924       0.93861032       2.54470912        0       1.44875297      -0.98943826       1.48437411      -0.01659380      -0.29131716      -1.20301771
Al      -0.01304571       1.78057346       4.99752448        1       0.01689823       1.11024972      -1.70730014       0.38438433       0.02358383       0.50762707
N        1.58384205       0.87104971       4.42155574        2      -0.67927501      -0.02704943      -0.19037131      -0.39236611       0.15177792      -0.39792928
N        0.00122212       1.81989274       1.85992052        3      -0.78637626      -0.09376206       0.41329735       0.02457548       0.11595526       1.09331989
4
Lattice="3.128588 0.0 0.0 -1.5642939988088433 2.709436998432005 0.0 0.0 0.0 5.016955" Properties=species:S:1:pos:R:3:spacegroup_kinds:I:1:momenta:R:3:forces:R:3 spacegroup="P 1" unit_cell=conventional occupancy="_JSON {\"0\": {\"Al\": 1}, \"1\": {\"Al\": 1}, \"2\": {\"N\": 1}, \"3\": {\"N\": 1}}" energy=-29.470203399658203 free_energy=-29.470203399658203 stress="0.0032032825984060764 -0.017801396548748016 0.011838343925774097 -0.017801396548748016 -0.04134891554713249 0.007359927054494619 0.011838343925774097 0.007359927054494619 -0.005160144530236721" pbc="T T T"
Al       1.62755626       0.89950078       2.54516753        0       1.04970770      -0.99981914      -0.80202960      -1.41064739       0.15933278      -0.91778910
Al      -0.00757057       1.81703572       4.95606283        1      -0.03757930       0.11959867      -0.16512702      -0.26242980      -0.84351498       1.41445589
N        1.52756231       0.85151205       4.42065485        2      -0.42752251       0.29023047      -0.07965774       0.31766114       0.98894536      -0.00115449
N       -0.06966664       1.84442109       1.93994533        3      -0.58460595       0.58998996       1.04681444       1.35541606      -0.30476320      -0.49551192
4
Lattice="3.128588 0.0 0.0 -1.5642939988088433 2.709436998432005 0.0 0.0 0.0 5.016955" Properties=species:S:1:pos:R:3:spacegroup_kinds:I:1:momenta:R:3:forces:R:3 spacegroup="P 1" unit_cell=conventional occupancy="_JSON {\"0\": {\"Al\": 1}, \"1\": {\"Al\": 1}, \"2\": {\"N\": 1}, \"3\": {\"N\": 1}}" energy=-29.452987670898438 free_energy=-29.452987670898438 stress="-0.013224772177636623 -0.02375016361474991 0.007911477237939835 -0.02375016361474991 -0.047931961715221405 -0.007333319168537855 0.007911477237939835 -0.007333319168537855 0.02863282524049282" pbc="T T T"
Al       1.63184037       0.85684026       2.46693547        0      -0.97589033      -0.55899617      -1.34838460      -1.39009833       1.11026382       1.17304015
Al      -0.02377743       1.82170281       4.98999602        1      -0.28018810       0.45883542       1.28013577      -0.08532470       0.08283345       0.34697267
N        1.52792694       0.92957750       4.44479003        2       0.11446468       0.97873213       0.08012580       0.22036022      -0.17398609       0.05598629
N       -0.04718868       1.83921503       2.00086009        3       1.14161365      -0.87857142      -0.01187695       1.25506282      -1.01911116      -1.57599890
4
Lattice="3.128588 0.0 0.0 -1.5642939988088433 2.709436998432005 0.0 0.0 0.0 5.016955" Properties=species:S:1:pos:R:3:spacegroup_kinds:I:1:momenta:R:3:forces:R:3 spacegroup="P 1" unit_cell=conventional occupancy="_JSON {\"0\": {\"Al\": 1}, \"1\": {\"Al\": 1}, \"2\": {\"N\": 1}, \"3\": {\"N\": 1}}" energy=-29.536317825317383 free_energy=-29.536317825317383 stress="-0.019857751205563545 0.01382896862924099 -0.005717405583709478 0.01382896862924099 -0.0031640897504985332 -0.0016709836199879646 -0.005717405583709478 -0.0016709836199879646 -0.006260623224079609" pbc="T T T"
Al       1.56291507       0.86348345       2.43836892        0      -1.44558797       0.38889169       0.34074973       0.67285919       0.11609241       1.45909643
Al      -0.01834141       1.83613137       5.05736572        1       0.19731483      -0.00921567       1.04742071       0.06595283       0.15003720      -1.19267428
N        1.54726695       0.95741146       4.47045644        2      -0.01023956       0.05685054       0.14844099       0.09761353      -0.44421095      -0.65174782
N        0.05576962       1.77068664       1.90062726        3       1.25851263      -0.43652658      -1.53661142      -0.83642566       0.17808104       0.38532537
4
Lattice="3.128588 0.0 0.0 -1.5642939988088433 2.709436998432005 0.0 0.0 0.0 5.016955" Properties=species:S:1:pos:R:3:spacegroup_kinds:I:1:momenta:R:3:forces:R:3 spacegroup="P 1" unit_cell=conventional occupancy="_JSON {\"0\": {\"Al\": 1}, \"1\": {\"Al\": 1}, \"2\": {\"N\": 1}, \"3\": {\"N\": 1}}" energy=-29.531002044677734 free_energy=-29.531002044677734 stress="-0.018294038251042366 0.015707485377788544 -0.011607753112912178 0.015707485377788544 0.0031476460862904787 0.00460556847974658 -0.011607753112912178 0.00460556847974658 -0.017258673906326294" pbc="T T T"
Al       1.54701074       0.87273545       2.46070912        0       0.71855694      -0.11584311       0.49435413       1.07476795      -0.28505772       1.06925249
Al      -0.01761628       1.84389394       5.05391118        1       0.19346369       0.17720437      -0.69190263       0.23187345      -0.07941622      -1.16825044
N        1.56395354       0.94331122       4.45961404        2       0.32487479      -0.12409429      -0.51346191      -0.11546831      -0.20503472      -0.72920495
N        0.06831346       1.75176761       1.87546338        3      -1.23689546       0.06273300       0.71101046      -1.19117308       0.56950879       0.82820296
4
Lattice="3.128588 0.0 0.0 -1.5642939988088433 2.709436998432005 0.0 0.0 0.0 5.016955" Properties=species:S:1:pos:R:3:spacegroup_kinds:I:1:momenta:R:3:forces:R:3 spacegroup="P 1" unit_cell=conventional occupancy="_JSON {\"0\": {\"Al\": 1}, \"1\": {\"Al\": 1}, \"2\": {\"N\": 1}, \"3\": {\"N\": 1}}" energy=-29.61321449279785 free_energy=-29.61321449279785 stress="-0.008381648920476437 -0.004276703577488661 0.005492843221873045 -0.004276703577488661 -0.013937302865087986 0.0014804902020841837 0.005492843221873045 0.0014804902020841837 0.012475364841520786" pbc="T T T"
Al       1.57767907       0.87033376       2.48321564        0       0.42145867      -0.10086073       0.75449443      -0.50598824       0.14215410       0.64867711
Al       0.00878680       1.84488741       5.00616574        1       0.94842536       0.04829683      -0.67234637      -0.28191060      -0.37569928       0.05942814
N        1.54733739       0.91884311       4.41695260        2      -0.50233612      -0.06173862      -0.86681751       0.26756793       0.16352677       0.34766713
N       -0.02491944       1.77881438       1.96659672        3      -0.86754794       0.11430249       0.78466949       0.52033091       0.07001844      -1.05577207
4
Lattice="3.128588 0.0 0.0 -1.5642939988088433 2.709436998432005 0.0 0.0 0.0 5.016955" Properties=species:S:1:pos:R:3:spacegroup_kinds:I:1:momenta:R:3:forces:R:3 spacegroup="P 1" unit_cell=conventional occupancy="_JSON {\"0\": {\"Al\": 1}, \"1\": {\"Al\": 1}, \"2\": {\"N\": 1}, \"3\": {\"N\": 1}}" energy=-29.55784034729004 free_energy=-29.55784034729004 stress="-0.016363991424441338 -0.0029476676136255264 0.012903808616101742 -0.0029476676136255264 -0.006207865662872791 0.0015376412775367498 0.012903808616101742 0.0015376412775367498 -0.002714540809392929" pbc="T T T"
Al       1.59068813       0.88023425       2.52274591        0      -0.41625547       0.17887040       0.33160912      -0.90884358      -0.14030859      -0.36867851
Al       0.01872291       1.83477378       4.97781990        1       0.14973985      -0.20763057      -0.17578497      -0.72829741      -0.10046487       0.72652507
N        1.52039169       0.92489994       4.39464368        2       0.19754352       0.25939890       0.47781773       0.72475886      -0.09604941       0.71574533
N       -0.04216866       1.77342028       1.96745700        3       0.06897207      -0.23063873      -0.63364187       0.91238189       0.33682287      -1.07359195
4
Lattice="3.128588 0.0 0.0 -1.5642939988088433 2.709436998432005 0.0 0.0 0.0 5.016955" Properties=species:S:1:pos:R:3:spacegroup_kinds:I:1:momenta:R:3:forces:R:3 spacegroup="P 1" unit_cell=conventional occupancy="_JSON {\"0\": {\"Al\": 1}, \"1\": {\"Al\": 1}, \"2\": {\"N\": 1}, \"3\": {\"N\": 1}}" energy=-29.621112823486328 free_energy=-29.621112823486328 stress="-0.021500805392861366 0.005276458337903023 -0.0032673883251845837 0.005276458337903023 0.01065781619399786 0.001924936892464757 -0.0032673883251845837 0.001924936892464757 -0.0015896803233772516" pbc="T T T"
Al       1.54767650       0.89587759       2.50832863        0      -0.85809991       0.46896538      -1.00003165       0.39160320      -0.39029163      -0.15032703
Al       0.00665802       1.82067516       5.00342494        1      -0.72966953      -0.11082680       1.46536794      -0.00949924       0.22696710       0.34863123
N        1.57185928       0.94293297       4.45440724        2       0.62349863      -0.37686506       0.64593284      -0.01969777      -0.43335059      -0.83890188
N        0.01256029       1.75229422       1.88600526        3       0.96427081       0.01872648      -1.11126914      -0.36240628       0.59667534       0.64059788
4
Lattice="3.128588 0.0 0.0 -1.5642939988088433 2.709436998432005 0.0 0.0 0.0 5.016955" Properties=species:S:1:pos:R:3:spacegroup_kinds:I:1:momenta:R:3:forces:R:3 spacegroup="P 1" unit_cell=conventional occupancy="_JSON {\"0\": {\"Al\": 1}, \"1\": {\"Al\": 1}, \"2\": {\"N\": 1}, \"3\": {\"N\": 1}}" energy=-29.520856857299805 free_energy=-29.520856857299805 stress="-0.014047564938664436 0.01182100921869278 -0.014255540445446968 0.01182100921869278 -0.005614724010229111 0.009361463598906994 -0.014255540445446968 0.009361463598906994 -0.019571218639612198" pbc="T T T"
Al       1.52999426       0.91403915       2.46474569        0       0.09545037      -0.23101177      -1.18071508       1.21875393      -0.63577116       0.99290299
Al      -0.00890655       1.82180732       5.05208965        1       0.31216912      -0.10747484       0.45537746       0.39472693      -0.38378558      -1.12710547
N        1.59437709       0.88605555       4.45928988        2      -0.04799024      -0.53350303      -0.20523376      -0.40810502       0.35579026      -0.79021394
N        0.05384450       1.77207216       1.87145004        3      -0.35962929       0.87198968       0.93057130      -1.20537615       0.66376638       0.92441630
4
Lattice="3.128588 0.0 0.0 -1.5642939988088433 2.709436998432005 0.0 0.0 0.0 5.016955" Properties=species:S:1:pos:R:3:spacegroup_kinds:I:1:momenta:R:3:forces:R:3 spacegroup="P 1" unit_cell=conventional occupancy="_JSON {\"0\": {\"Al\": 1}, \"1\": {\"Al\": 1}, \"2\": {\"N\": 1}, \"3\": {\"N\": 1}}" energy=-29.61878776550293 free_energy=-29.61878776550293 stress="0.010117421858012676 -0.001821941346861422 -0.0018730598967522383 -0.001821941346861422 -0.02478320337831974 0.004591149277985096 -0.0018730598967522383 0.004591149277985096 2.6324149075662717e-05" pbc="T T T"
Al       1.53818030       0.90928016       2.47247626        0       0.23228589      -0.27447328       1.41733338       0.21200927       0.18702167       0.85530788
Al       0.01802691       1.81430743       5.03506517        1       0.60360847      -0.42930235      -1.11140754       0.03760213      -0.69444168      -0.55142558
N        1.59518010       0.85128047       4.42414646        2       0.09084580       0.02420648      -0.77345439      -0.19470310       0.84070587       0.01228099
N       -0.01452980       1.83034436       1.92467366        3      -0.92674020       0.67956917       0.46752849      -0.05490824      -0.33328581      -0.31616333
4
Lattice="3.128588 0.0 0.0 -1.5642939988088433 2.709436998432005 0.0 0.0 0.0 5.016955" Properties=species:S:1:pos:R:3:spacegroup_kinds:I:1:momenta:R:3:forces:R:3 spacegroup="P 1" unit_cell=conventional occupancy="_JSON {\"0\": {\"Al\": 1}, \"1\": {\"Al\": 1}, \"2\": {\"N\": 1}, \"3\": {\"N\": 1}}" energy=-29.62374496459961 free_energy=-29.62374496459961 stress="0.004300309345126152 -0.008672768250107765 0.0028822750318795443 -0.008672768250107765 -0.006944033782929182 -0.004434820730239153 0.0028822750318795443 -0.004434820730239153 -0.014838486909866333" pbc="T T T"
Al       1.54321203       0.89379621       2.53645979        0      -0.00705394      -0.41529108       0.79445005      -0.25250405       0.39303118      -0.87833488
Al       0.03580900       1.79893952       4.98957809        1       0.09337911      -0.29525144      -0.61191883      -0.16601488       0.14058037       0.62744623
N        1.59619752       0.90645093       4.40111852        2      -0.02189796       1.09350675       0.27120825      -0.08899470      -0.09593681       0.34910315
N       -0.05911261       1.83464210       1.91219260        3      -0.06442723      -0.38296425      -0.45373954       0.50751376      -0.43767464      -0.09821457
