4
Lattice="3.128588 0.0 0.0 -1.5642939988088433 2.709436998432005 0.0 0.0 0.0 5.016955" Properties=species:S:1:pos:R:3:spacegroup_kinds:I:1:forces:R:3 spacegroup="P 1" unit_cell=conventional occupancy="_JSON {\"0\": {\"Al\": 1}, \"1\": {\"Al\": 1}, \"2\": {\"N\": 1}, \"3\": {\"N\": 1}}" energy=-29.673715591430664 free_energy=-29.673715591430664 stress="-0.0022253128699958324 -1.327554059571412e-06 8.74922001514733e-09 -1.327554059571412e-06 -0.00222731102257967 -2.5099726741473205e-08 8.74922001514733e-09 -2.5099726741473205e-08 -0.005453713238239288" pbc="T T T"
Al       1.56429556       0.90314476       2.50490041        0      -0.00003489       0.00001942       0.00553212
Al      -0.00000156       1.80629224       5.01337791        1       0.00003480      -0.00002056       0.00552338
N        1.56429556       0.90314476       4.41849749        2      -0.00003641       0.00002111      -0.00553063
N       -0.00000156       1.80629224       1.91001999        3       0.00003643      -0.00001999      -0.00552465
