4
Lattice="3.128588 0.0 0.0 -1.5642939988088433 2.709436998432005 0.0 0.0 0.0 5.016955" Properties=species:S:1:pos:R:3:spacegroup_kinds:I:1:momenta:R:3:forces:R:3 spacegroup="P 1" unit_cell=conventional occupancy="_JSON {\"0\": {\"Al\": 1}, \"1\": {\"Al\": 1}, \"2\": {\"N\": 1}, \"3\": {\"N\": 1}}" energy=-29.623743057250977 free_energy=-29.623743057250977 stress="0.0043004341423511505 -0.00867273285984993 0.0028819504659622908 -0.00867273285984993 -0.006943747866898775 -0.004434481263160706 0.0028819504659622908 -0.004434481263160706 -0.014839058741927147" pbc="T T T"
Al       1.54321206       0.89379622       2.53645984        0      -0.00705370      -0.41529132       0.79444774      -0.25250265       0.39302886      -0.87834418
Al       0.03580896       1.79893953       4.98957808        1       0.09337930      -0.29525152      -0.61191802      -0.16600937       0.14057678       0.62745070
N        1.59619757       0.90645098       4.40111842        2      -0.02189834       1.09350686       0.27120830      -0.08899976      -0.09593356       0.34911150
N       -0.05911262       1.83464210       1.91219260        3      -0.06442728      -0.38296400      -0.45373803       0.50751197      -0.43767199      -0.09821807
