4
Lattice="3.128588 0.0 0.0 -1.5642939988088433 2.709436998432005 0.0 0.0 0.0 5.016955" Properties=species:S:1:pos:R:3:spacegroup_kinds:I:1:momenta:R:3:forces:R:3 spacegroup="P 1" unit_cell=conventional occupancy="_JSON {\"0\": {\"Al\": 1}, \"1\": {\"Al\": 1}, \"2\": {\"N\": 1}, \"3\": {\"N\": 1}}" energy=-29.673717498779297 free_energy=-29.673717498779297 stress="-0.002225275617092848 -1.3398741884884657e-06 4.117836072126124e-10 -1.3398741884884657e-06 -0.0022273529320955276 -2.2360117313269257e-08 4.117836072126124e-10 -2.2360117313269257e-08 -0.005453669466078281" pbc="T T T"
Al       1.56429556       0.90314476       2.50490041        0       0.68448204       0.53670047       0.91071479      -0.00003557       0.00001957       0.00553128
Al      -0.00000156       1.80629224       5.01337791        1       0.31075784       0.39520501      -1.87833745       0.00003361      -0.00001939       0.00552442
N        1.56429556       0.90314476       4.41849749        2      -0.23293981      -0.79739853      -0.40745139      -0.00003511       0.00002066      -0.00553047
N       -0.00000156       1.80629224       1.91001999        3      -0.76230006      -0.13450696       1.37507406       0.00003691      -0.00002069      -0.00552522
4
Lattice="3.128588 0.0 0.0 -1.5642939988088433 2.709436998432005 0.0 0.0 0.0 5.016955" Properties=species:S:1:pos:R:3:spacegroup_kinds:I:1:momenta:R:3:forces:R:3 spacegroup="P 1" unit_cell=conventional occupancy="_JSON {\"0\": {\"Al\": 1}, \"1\": {\"Al\": 1}, \"2\": {\"N\": 1}, \"3\": {\"N\": 1}}" energy=-29.433591842651367 free_energy=-29.433591842651367 stress="-0.013773329555988312 -0.016446411609649658 0.012948793359100819 -0.016446411609649658 -0.023968705907464027 0.009969759732484818 0.012948793359100819 0.009969759732484818 -0.01205950416624546" pbc="T T T"
Al       1.60246141       0.92231283       2.54150849        0       0.57498216      -0.13492000       1.02882502      -1.31301308      -0.49033350      -0.87831539
Al       0.00328788       1.81111140       4.94718773        1      -0.44725835       0.00118047      -1.07867353      -0.30154139      -0.59423339       1.18011904
N        1.53678589       0.85870779       4.38099594        2       0.14052066      -0.46066723       0.20203865       0.28490734       0.67984593       1.25553656
N       -0.05228246       1.80432671       2.00436660        3      -0.26824448       0.59440675      -0.15219013       1.32964706       0.40472093      -1.55734038
4
Lattice="3.128588 0.0 0.0 -1.5642939988088433 2.709436998432005 0.0 0.0 0.0 5.016955" Properties=species:S:1:pos:R:3:spacegroup_kinds:I:1:momenta:R:3:forces:R:3 spacegroup="P 1" unit_cell=conventional occupancy="_JSON {\"0\": {\"Al\": 1}, \"1\": {\"Al\": 1}, \"2\": {\"N\": 1}, \"3\": {\"N\": 1}}" energy=-29.567256927490234 free_energy=-29.567256927490234 stress="0.012915685772895813 0.0017023558029904962 0.0035793473944067955 0.0017023558029904962 -0.02585696056485176 -0.005369129125028849 0.0035793473944067955 -0.005369129125028849 -0.011435220949351788" pbc="T T T"
Al       1.59598186       0.90138485       2.55101265        0      -0.85003982      -0.64755177      -0.41676311      -0.33522883       0.74370503      -1.26921189
Al      -0.01311800       1.79082858       4.96769656        1      -0.24557010      -0.74327798       1.65595801      -0.18280111      -0.17026737       1.21499705
N        1.52960411       0.86779351       4.41996341        2       0.16413062       0.60763593       0.63654576       0.31887546       0.39321351      -0.09056915
N       -0.00060096       1.87475191       1.90756522        3       0.93147925       0.78319383      -1.87574064       0.19915430      -0.96665120       0.14478385
4
Lattice="3.128588 0.0 0.0 -1.5642939988088433 2.709436998432005 0.0 0.0 0.0 5.016955" Properties=species:S:1:pos:R:3:spacegroup_kinds:I:1:momenta:R:3:forces:R:3 spacegroup="P 1" unit_cell=conventional occupancy="_JSON {\"0\": {\"Al\": 1}, \"1\": {\"Al\": 1}, \"2\": {\"N\": 1}, \"3\": {\"N\": 1}}" energy=-29.406274795532227 free_energy=-29.406274795532227 stress="0.01068875938653946 0.016498172655701637 -0.00816399697214365 0.016498172655701637 -0.009423204697668552 -0.015553941950201988 -0.00816399697214365 -0.015553941950201988 -0.06125400587916374" pbc="T T T"
Al       1.53423929       0.87298460       2.51007452        0      -1.60925392       0.09619216      -1.03262328       0.74608803       1.00298417       0.03482400
Al      -0.01349003       1.78470221       5.05709164        1       0.21561252      -0.04339788       1.72443321       0.02271320       0.40732867      -1.66436839
N        1.55208975       0.92225132       4.42203510        2       0.38659367       0.63935807      -0.93002890       0.04495689      -0.39009625      -0.56986248
N        0.09667395       1.88681819       1.81230438        3       1.00704770      -0.69215232       0.23821896      -0.81375802      -1.02021635       2.19940686
4
Lattice="3.128588 0.0 0.0 -1.5642939988088433 2.709436998432005 0.0 0.0 0.0 5.016955" Properties=species:S:1:pos:R:3:spacegroup_kinds:I:1:momenta:R:3:forces:R:3 spacegroup="P 1" unit_cell=conventional occupancy="_JSON {\"0\": {\"Al\": 1}, \"1\": {\"Al\": 1}, \"2\": {\"N\": 1}, \"3\": {\"N\": 1}}" energy=-29.201902389526367 free_energy=-29.201902389526367 stress="-0.02644096314907074 0.03815562650561333 -0.031382445245981216 0.03815562650561333 -0.004877651110291481 0.0015437462134286761 -0.031382445245981216 0.0015437462134286761 -0.05181995406746864" pbc="T T T"
Al       1.49382402       0.87740193       2.48150488        0      -0.08661664      -0.02748772       0.25595520       2.48428082      -0.46186611       1.22611630
Al      -0.02076736       1.79337851       5.08843295        1       0.00716733       0.60209073      -1.27068237       0.64723277       0.57433385      -2.36004019
N        1.60157222       0.96971685       4.33361321        2       0.49437262       0.53651038      -0.17473411      -0.53882611      -0.70145321       1.74608982
N        0.13924907       1.81421453       1.89535167        3      -0.41492332      -1.11111329       1.18946127      -2.59268761       0.58898544      -0.61216593
4
Lattice="3.128588 0.0 0.0 -1.5642939988088433 2.709436998432005 0.0 0.0 0.0 5.016955" Properties=species:S:1:pos:R:3:spacegroup_kinds:I:1:momenta:R:3:forces:R:3 spacegroup="P 1" unit_cell=conventional occupancy="_JSON {\"0\": {\"Al\": 1}, \"1\": {\"Al\": 1}, \"2\": {\"N\": 1}, \"3\": {\"N\": 1}}" energy=-29.574626922607422 free_energy=-29.574626922607422 stress="-0.02361796796321869 -0.014321228489279747 -0.011127939447760582 -0.014321228489279747 0.015030070208013058 -0.002854632679373026 -0.011127939447760582 -0.002854632679373026 -0.014440336264669895" pbc="T T T"
Al       1.53421961       0.88369270       2.53780579        0       1.55944068       0.36820853       1.55970967       0.29264194      -0.24000400      -0.91367817
Al      -0.00048007       1.82107764       4.98837345        1       1.01688544       0.86374320      -2.47525407       0.94369489       0.52251577       0.78486550
N        1.63583965       0.96584650       4.40663183        2      -0.31021895      -0.52489297       1.27117424      -1.15103781      -0.78907228       0.05687854
N       -0.01177520       1.75252279       1.90648733        3      -2.26610724      -0.70705869      -0.35562987      -0.08529907       0.50656056       0.07193373
4
Lattice="3.128588 0.0 0.0 -1.5642939988088433 2.709436998432005 0.0 0.0 0.0 5.016955" Properties=species:S:1:pos:R:3:spacegroup_kinds:I:1:momenta:R:3:forces:R:3 spacegroup="P 1" unit_cell=conventional occupancy="_JSON {\"0\": {\"Al\": 1}, \"1\": {\"Al\": 1}, \"2\": {\"N\": 1}, \"3\": {\"N\": 1}}" energy=-29.372072219848633 free_energy=-29.372072219848633 stress="-0.005629572551697493 -0.01871936395764351 0.015849469229578972 -0.01871936395764351 -0.03227294608950615 0.017212223261594772 0.015849469229578972 0.017212223261594772 -0.007298239506781101" pbc="T T T"
Al       1.57072834       0.88046441       2.56331973        0      -0.00039227      -0.37629534      -0.57844005      -1.34386432      -0.44065791      -1.50707686
Al       0.05055070       1.86456081       4.94968572        1       0.52727002       0.77034155       1.04960127      -0.49129015      -1.36433744       1.82584739
N        1.58204800       0.88176661       4.44992392        2      -0.27832241      -1.02263383      -0.55459255       0.15003727       1.16376138      -0.85894936
N       -0.12661085       1.75915456       1.88869865        3      -0.24855542       0.62858766       0.08343130       1.68511748       0.64123368       0.54017907
4
Lattice="3.128588 0.0 0.0 -1.5642939988088433 2.709436998432005 0.0 0.0 0.0 5.016955" Properties=species:S:1:pos:R:3:spacegroup_kinds:I:1:momenta:R:3:forces:R:3 spacegroup="P 1" unit_cell=conventional occupancy="_JSON {\"0\": {\"Al\": 1}, \"1\": {\"Al\": 1}, \"2\": {\"N\": 1}, \"3\": {\"N\": 1}}" energy=-29.596923828125 free_energy=-29.596923828125 stress="0.015976406633853912 -0.004506012424826622 0.006018674932420254 -0.004506012424826622 -0.02549939602613449 -0.004597144667059183 0.006018674932420254 -0.004597144667059183 -0.010013929568231106" pbc="T T T"
Al       1.53284808       0.86390065       2.51395077        0      -1.59464515      -0.16469617      -1.74991292      -0.27820781       0.89915919      -0.15420622
Al       0.06317841       1.83227866       5.00948379        1       0.38440027      -1.80666579       1.59449886      -0.58708405      -0.41271716       0.16725101
N        1.58572477       0.89623786       4.41422579        2       0.14193155       1.12964920      -0.09119151       0.25704125       0.38076726       0.00228183
N       -0.08152108       1.83862421       1.90381441        3       1.06831323       0.84171280       0.24660557       0.60825056      -0.86720920      -0.01532644
4
Lattice="3.128588 0.0 0.0 -1.5642939988088433 2.709436998432005 0.0 0.0 0.0 5.016955" Properties=species:S:1:pos:R:3:spacegroup_kinds:I:1:momenta:R:3:forces:R:3 spacegroup="P 1" unit_cell=conventional occupancy="_JSON {\"0\": {\"Al\": 1}, \"1\": {\"Al\": 1}, \"2\": {\"N\": 1}, \"3\": {\"N\": 1}}" energy=-29.46255111694336 free_energy=-29.46255111694336 stress="-0.005697119515389204 0.010849563404917717 -0.003906605765223503 0.010849563404917717 -0.01913396455347538 -0.012703179381787777 -0.003906605765223503 -0.012703179381787777 -0.011871369555592537" pbc="T T T"
Al       1.48347330       0.88264396       2.44527932        0      -0.30454530       1.01149531      -0.60004538       0.88393039       0.95768273       1.70777094
Al       0.06164410       1.77681261       5.07306068        1      -0.86715245      -0.75617419       0.43048921      -0.30080694       0.71655297      -1.72280061
N        1.61717707       0.94947182       4.40498426        2       0.38645846       0.04830103       0.18623236      -0.07233869      -0.67486024       0.48910698
N       -0.01486932       1.85626146       1.92266701        3       0.78523922      -0.30362209      -0.01667619      -0.51078492      -0.99937546      -0.47407690
4
Lattice="3.128588 0.0 0.0 -1.5642939988088433 2.709436998432005 0.0 0.0 0.0 5.016955" Properties=species:S:1:pos:R:3:spacegroup_kinds:I:1:momenta:R:3:forces:R:3 spacegroup="P 1" unit_cell=conventional occupancy="_JSON {\"0\": {\"Al\": 1}, \"1\": {\"Al\": 1}, \"2\": {\"N\": 1}, \"3\": {\"N\": 1}}" energy=-29.518747329711914 free_energy=-29.518747329711914 stress="-0.023370973765850067 0.006539956200867891 -0.016098231077194214 0.006539956200867891 0.006697183474898338 -0.00048240245087072253 -0.016098231077194214 -0.00048240245087072253 -0.022161273285746574" pbc="T T T"
Al       1.50607637       0.94974319       2.46463697        0       1.15921288       0.62635166       1.50689856       1.24247408      -0.60704589       1.15697503
Al       0.01335470       1.75088041       5.06242872        1      -0.91112041       0.14825212      -0.88962569       0.51474714       0.69610685      -1.43089032
N        1.62637955       0.90489620       4.42127854        2      -0.14223505      -0.64065019       0.21498374      -0.71771884      -0.51824266      -0.07984819
N        0.02538011       1.82158367       1.88963029        3      -0.10585742      -0.13395355      -0.83225664      -1.03950238       0.42918196       0.35376322
4
Lattice="3.128588 0.0 0.0 -1.5642939988088433 2.709436998432005 0.0 0.0 0.0 5.016955" Properties=species:S:1:pos:R:3:spacegroup_kinds:I:1:momenta:R:3:forces:R:3 spacegroup="P 1" unit_cell=conventional occupancy="_JSON {\"0\": {\"Al\": 1}, \"1\": {\"Al\": 1}, \"2\": {\"N\": 1}, \"3\": {\"N\": 1}}" energy=-29.605009078979492 free_energy=-29.605009078979492 stress="0.0015960196033120155 -0.006786017213016748 -0.0030953865498304367 -0.006786017213016748 0.0017807942349463701 0.0017246329225599766 -0.0030953865498304367 0.0017246329225599766 -0.023115038871765137" pbc="T T T"
Al       1.56693923       0.93861028       2.54470907        0       1.44875330      -0.98943856       1.48437320      -0.01659479      -0.29131255      -1.20299661
Al      -0.01304571       1.78057345       4.99752455        1       0.01689777       1.11024967      -1.70729889       0.38438773       0.02358260       0.50759590
N        1.58384205       0.87104973       4.42155572        2      -0.67927443      -0.02704933      -0.19037127      -0.39236939       0.15177745      -0.39792740
N        0.00122215       1.81989285       1.85992052        3      -0.78637663      -0.09376176       0.41329694       0.02457653       0.11595246       1.09332776
4
Lattice="3.128588 0.0 0.0 -1.5642939988088433 2.709436998432005 0.0 0.0 0.0 5.016955" Properties=species:S:1:pos:R:3:spacegroup_kinds:I:1:momenta:R:3:forces:R:3 spacegroup="P 1" unit_cell=conventional occupancy="_JSON {\"0\": {\"Al\": 1}, \"1\": {\"Al\": 1}, \"2\": {\"N\": 1}, \"3\": {\"N\": 1}}" energy=-29.470203399658203 free_energy=-29.470203399658203 stress="0.00320315919816494 -0.017801558598876 0.01183833833783865 -0.017801558598876 -0.04134902358055115 0.007359921932220459 0.01183833833783865 0.007359921932220459 -0.0051603070460259914" pbc="T T T"
Al       1.62755627       0.89950077       2.54516749        0       1.04970818      -0.99981811      -0.80202866      -1.41065168       0.15933199      -0.91778713
Al      -0.00757058       1.81703572       4.95606289        1      -0.03757919       0.11959917      -0.16512839      -0.26242399      -0.84351391       1.41445482
N        1.52756235       0.85151205       4.42065486        2      -0.42752214       0.29023006      -0.07965737       0.31765515       0.98894429      -0.00115259
N       -0.06966667       1.84442116       1.93994531        3      -0.58460685       0.58998888       1.04681444       1.35542035      -0.30476242      -0.49551523
4
Lattice="3.128588 0.0 0.0 -1.5642939988088433 2.709436998432005 0.0 0.0 0.0 5.016955" Properties=species:S:1:pos:R:3:spacegroup_kinds:I:1:momenta:R:3:forces:R:3 spacegroup="P 1" unit_cell=conventional occupancy="_JSON {\"0\": {\"Al\": 1}, \"1\": {\"Al\": 1}, \"2\": {\"N\": 1}, \"3\": {\"N\": 1}}" energy=-29.452985763549805 free_energy=-29.452985763549805 stress="-0.013225226663053036 -0.023750094696879387 0.007911529392004013 -0.023750094696879387 -0.047931771725416183 -0.007333191577345133 0.007911529392004013 -0.007333191577345133 0.028632892295718193" pbc="T T T"
Al       1.63184040       0.85684030       2.46693550        0      -0.97589072      -0.55899567      -1.34838286      -1.39010537       1.11025906       1.17303514
Al      -0.02377742       1.82170283       4.98999599        1      -0.28018775       0.45883548       1.28013444      -0.08532991       0.08283631       0.34697428
N        1.52792697       0.92957749       4.44479003        2       0.11446447       0.97873227       0.08012487       0.22036535      -0.17399000       0.05598609
N       -0.04718875       1.83921500       2.00086009        3       1.14161397      -0.87857206      -0.01187647       1.25507009      -1.01910520      -1.57599545
4
Lattice="3.128588 0.0 0.0 -1.5642939988088433 2.709436998432005 0.0 0.0 0.0 5.016955" Properties=species:S:1:pos:R:3:spacegroup_kinds:I:1:momenta:R:3:forces:R:3 spacegroup="P 1" unit_cell=conventional occupancy="_JSON {\"0\": {\"Al\": 1}, \"1\": {\"Al\": 1}, \"2\": {\"N\": 1}, \"3\": {\"N\": 1}}" energy=-29.536314010620117 free_energy=-29.536314010620117 stress="-0.019857782870531082 0.013828875496983528 -0.005716988816857338 0.013828875496983528 -0.003163986373692751 -0.0016709240153431892 -0.005716988816857338 -0.0016709240153431892 -0.006260656751692295" pbc="T T T"
Al       1.56291505       0.86348347       2.43836900        0      -1.44558890       0.38889092       0.34074976       0.67286003       0.11609110       1.45909691
Al      -0.01834139       1.83613138       5.05736567        1       0.19731483      -0.00921558       1.04742106       0.06594865       0.15003419      -1.19268370
N        1.54726696       0.95741147       4.47045634        2      -0.01023971       0.05685050       0.14844016       0.09761634      -0.44420660      -0.65173233
N        0.05576964       1.77068663       1.90062730        3       1.25851378      -0.43652583      -1.53661101      -0.83642495       0.17808135       0.38531953
4
Lattice="3.128588 0.0 0.0 -1.5642939988088433 2.709436998432005 0.0 0.0 0.0 5.016955" Properties=species:S:1:pos:R:3:spacegroup_kinds:I:1:momenta:R:3:forces:R:3 spacegroup="P 1" unit_cell=conventional occupancy="_JSON {\"0\": {\"Al\": 1}, \"1\": {\"Al\": 1}, \"2\": {\"N\": 1}, \"3\": {\"N\": 1}}" energy=-29.5310001373291 free_energy=-29.5310001373291 stress="-0.018294237554073334 0.0157075934112072 -0.011607764288783073 0.0157075934112072 0.003147796029224992 0.004605741705745459 -0.011607764288783073 0.004605741705745459 -0.0172588974237442" pbc="T T T"
Al       1.54701070       0.87273544       2.46070917        0       0.71855712      -0.11584379       0.49435267       1.07476652      -0.28505701       1.06925333
Al      -0.01761627       1.84389395       5.05391118        1       0.19346341       0.17720421      -0.69190099       0.23187773      -0.07942079      -1.16825068
N        1.56395355       0.94331123       4.45961396        2       0.32487499      -0.12409420      -0.51346153      -0.11547109      -0.20503196      -0.72920275
N        0.06831352       1.75176766       1.87546337        3      -1.23689553       0.06273381       0.71100975      -1.19117320       0.56951010       0.82820010
4
Lattice="3.128588 0.0 0.0 -1.5642939988088433 2.709436998432005 0.0 0.0 0.0 5.016955" Properties=species:S:1:pos:R:3:spacegroup_kinds:I:1:momenta:R:3:forces:R:3 spacegroup="P 1" unit_cell=conventional occupancy="_JSON {\"0\": {\"Al\": 1}, \"1\": {\"Al\": 1}, \"2\": {\"N\": 1}, \"3\": {\"N\": 1}}" energy=-29.613210678100586 free_energy=-29.613210678100586 stress="-0.008381661958992481 -0.004276633728295565 0.005492893513292074 -0.004276633728295565 -0.013937074691057205 0.001480385079048574 0.005492893513292074 0.001480385079048574 0.012475325725972652" pbc="T T T"
Al       1.57767905       0.87033376       2.48321560        0       0.42145960      -0.10085980       0.75449300      -0.50598723       0.14215404       0.64867634
Al       0.00878680       1.84488741       5.00616580        1       0.94842508       0.04829686      -0.67234649      -0.28191072      -0.37569648       0.05942723
N        1.54733742       0.91884313       4.41695262        2      -0.50233577      -0.06173864      -0.86681614       0.26756796       0.16352461       0.34766826
N       -0.02491941       1.77881442       1.96659665        3      -0.86754893       0.11430160       0.78466961       0.52032971       0.07001815      -1.05577159
4
Lattice="3.128588 0.0 0.0 -1.5642939988088433 2.709436998432005 0.0 0.0 0.0 5.016955" Properties=species:S:1:pos:R:3:spacegroup_kinds:I:1:momenta:R:3:forces:R:3 spacegroup="P 1" unit_cell=conventional occupancy="_JSON {\"0\": {\"Al\": 1}, \"1\": {\"Al\": 1}, \"2\": {\"N\": 1}, \"3\": {\"N\": 1}}" energy=-29.557838439941406 free_energy=-29.557838439941406 stress="-0.01636349968612194 -0.002947587752714753 0.012903842143714428 -0.002947587752714753 -0.006207598838955164 0.0015375467482954264 0.012903842143714428 0.0015375467482954264 -0.0027150174137204885" pbc="T T T"
Al       1.59068815       0.88023429       2.52274582        0      -0.41625528       0.17887056       0.33160852      -0.90884501      -0.14031057      -0.36868161
Al       0.01872291       1.83477378       4.97781993        1       0.14974012      -0.20763097      -0.17578563      -0.72829658      -0.10046103       0.72653383
N        1.52039172       0.92489998       4.39464379        2       0.19754307       0.25939934       0.47781781       0.72475809      -0.09605101       0.71573633
N       -0.04216869       1.77342026       1.96745698        3       0.06897205      -0.23063889      -0.63364071       0.91238332       0.33682284      -1.07358861
4
Lattice="3.128588 0.0 0.0 -1.5642939988088433 2.709436998432005 0.0 0.0 0.0 5.016955" Properties=species:S:1:pos:R:3:spacegroup_kinds:I:1:momenta:R:3:forces:R:3 spacegroup="P 1" unit_cell=conventional occupancy="_JSON {\"0\": {\"Al\": 1}, \"1\": {\"Al\": 1}, \"2\": {\"N\": 1}, \"3\": {\"N\": 1}}" energy=-29.621110916137695 free_energy=-29.621110916137695 stress="-0.021500583738088608 0.005276422947645187 -0.0032673648092895746 0.005276422947645187 0.010657773353159428 0.0019249222241342068 -0.0032673648092895746 0.0019249222241342068 -0.0015899466816335917" pbc="T T T"
Al       1.54767651       0.89587761       2.50832859        0      -0.85810024       0.46896502      -1.00002884       0.39160255      -0.39028993      -0.15032563
Al       0.00665802       1.82067517       5.00342494        1      -0.72966935      -0.11082584       1.46536654      -0.00949944       0.22697008       0.34863064
N        1.57185927       0.94293299       4.45440722        2       0.62349815      -0.37686573       0.64593124      -0.01969711      -0.43335345      -0.83890164
N        0.01256028       1.75229422       1.88600533        3       0.96427138       0.01872661      -1.11126899      -0.36240590       0.59667319       0.64059693
4
Lattice="3.128588 0.0 0.0 -1.5642939988088433 2.709436998432005 0.0 0.0 0.0 5.016955" Properties=species:S:1:pos:R:3:spacegroup_kinds:I:1:momenta:R:3:forces:R:3 spacegroup="P 1" unit_cell=conventional occupancy="_JSON {\"0\": {\"Al\": 1}, \"1\": {\"Al\": 1}, \"2\": {\"N\": 1}, \"3\": {\"N\": 1}}" energy=-29.520856857299805 free_energy=-29.520856857299805 stress="-0.01404761802405119 0.011820950545370579 -0.01425560750067234 0.011820950545370579 -0.005614710971713066 0.009361467324197292 -0.01425560750067234 0.009361467324197292 -0.019571106880903244" pbc="T T T"
Al       1.52999427       0.91403916       2.46474577        0       0.09545005      -0.23101207      -1.18071309       1.21875358      -0.63577223       0.99290133
Al      -0.00890655       1.82180736       5.05208962        1       0.31216869      -0.10747456       0.45537710       0.39472806      -0.38378453      -1.12710273
N        1.59437707       0.88605552       4.45928982        2      -0.04798980      -0.53350313      -0.20523277      -0.40810534       0.35578868      -0.79021674
N        0.05384453       1.77207218       1.87144998        3      -0.35962900       0.87198983       0.93056876      -1.20537627       0.66376829       0.92441797
4
Lattice="3.128588 0.0 0.0 -1.5642939988088433 2.709436998432005 0.0 0.0 0.0 5.016955" Properties=species:S:1:pos:R:3:spacegroup_kinds:I:1:momenta:R:3:forces:R:3 spacegroup="P 1" unit_cell=conventional occupancy="_JSON {\"0\": {\"Al\": 1}, \"1\": {\"Al\": 1}, \"2\": {\"N\": 1}, \"3\": {\"N\": 1}}" energy=-29.618785858154297 free_energy=-29.618785858154297 stress="0.010117604397237301 -0.0018221719656139612 -0.0018729985458776355 -0.0018221719656139612 -0.024783192202448845 0.004591045901179314 -0.0018729985458776355 0.004591045901179314 2.6570824047666974e-05" pbc="T T T"
Al       1.53818030       0.90928018       2.47247638        0       0.23228641      -0.27447331       1.41733254       0.21200776       0.18702278       0.85530418
Al       0.01802688       1.81430746       5.03506512        1       0.60360772      -0.42930313      -1.11140685       0.03760169      -0.69444019      -0.55142748
N        1.59518013       0.85128048       4.42414642        2       0.09084650       0.02420749      -0.77345520      -0.19470215       0.84070385       0.01228353
N       -0.01452978       1.83034434       1.92467353        3      -0.92674069       0.67956900       0.46752950      -0.05490744      -0.33328661      -0.31615993
4
Lattice="3.128588 0.0 0.0 -1.5642939988088433 2.709436998432005 0.0 0.0 0.0 5.016955" Properties=species:S:1:pos:R:3:spacegroup_kinds:I:1:momenta:R:3:forces:R:3 spacegroup="P 1" unit_cell=conventional occupancy="_JSON {\"0\": {\"Al\": 1}, \"1\": {\"Al\": 1}, \"2\": {\"N\": 1}, \"3\": {\"N\": 1}}" energy=-29.623743057250977 free_energy=-29.623743057250977 stress="0.0043004341423511505 -0.00867273285984993 0.0028819504659622908 -0.00867273285984993 -0.006943747866898775 -0.004434481263160706 0.0028819504659622908 -0.004434481263160706 -0.014839058741927147" pbc="T T T"
Al       1.54321206       0.89379622       2.53645984        0      -0.00705370      -0.41529132       0.79444774      -0.25250265       0.39302886      -0.87834418
Al       0.03580896       1.79893953       4.98957808        1       0.09337930      -0.29525152      -0.61191802      -0.16600937       0.14057678       0.62745070
N        1.59619757       0.90645098       4.40111842        2      -0.02189834       1.09350686       0.27120830      -0.08899976      -0.09593356       0.34911150
N       -0.05911262       1.83464210       1.91219260        3      -0.06442728      -0.38296400      -0.45373803       0.50751197      -0.43767199      -0.09821807
