4
Lattice="3.128588 0.0 0.0 -1.5642939988088433 2.709436998432005 0.0 0.0 0.0 5.016955" Properties=species:S:1:pos:R:3:spacegroup_kinds:I:1:forces:R:3 spacegroup="P 1" unit_cell=conventional occupancy="_JSON {\"0\": {\"Al\": 1}, \"1\": {\"Al\": 1}, \"2\": {\"N\": 1}, \"3\": {\"N\": 1}}" energy=-29.673715591430664 free_energy=-29.673715591430664 stress="-0.002225387841463089 -1.4806350918661337e-06 1.542690419853443e-08 -1.4806350918661337e-06 -0.0022274802904576063 -4.8632241345103466e-08 1.542690419853443e-08 -4.8632241345103466e-08 -0.005453658755868673" pbc="T T T"
Al       1.56429556       0.90314476       2.50490041        0      -0.00003523       0.00002078       0.00553330
Al      -0.00000156       1.80629224       5.01337791        1       0.00003399      -0.00001989       0.00552399
N        1.56429556       0.90314476       4.41849749        2      -0.00003595       0.00002059      -0.00552993
N       -0.00000156       1.80629224       1.91001999        3       0.00003721      -0.00002143      -0.00552725
