56
Lattice="10.7619164 0.0 0.0 -9.665296305262016 4.732958053065482 0.0 -0.5483100463354086 -2.3664790220718444 10.484177494289693" Properties=species:S:1:pos:R:3:spacegroup_kinds:I:1:forces:R:3 spacegroup="P 1" unit_cell=conventional occupancy="_JSON {\"0\": {\"H\": 1}, \"1\": {\"H\": 1}, \"2\": {\"H\": 1}, \"3\": {\"H\": 1}, \"4\": {\"H\": 1}, \"5\": {\"H\": 1}, \"6\": {\"H\": 1}, \"7\": {\"H\": 1}, \"8\": {\"H\": 1}, \"9\": {\"H\": 1}, \"10\": {\"H\": 1}, \"11\": {\"H\": 1}, \"12\": {\"H\": 1}, \"13\": {\"H\": 1}, \"14\": {\"H\": 1}, \"15\": {\"H\": 1}, \"16\": {\"H\": 1}, \"17\": {\"H\": 1}, \"18\": {\"H\": 1}, \"19\": {\"H\": 1}, \"20\": {\"H\": 1}, \"21\": {\"H\": 1}, \"22\": {\"H\": 1}, \"23\": {\"H\": 1}, \"24\": {\"H\": 1}, \"25\": {\"H\": 1}, \"26\": {\"H\": 1}, \"27\": {\"H\": 1}, \"28\": {\"H\": 1}, \"29\": {\"H\": 1}, \"30\": {\"H\": 1}, \"31\": {\"H\": 1}, \"32\": {\"C\": 1}, \"33\": {\"C\": 1}, \"34\": {\"C\": 1}, \"35\": {\"C\": 1}, \"36\": {\"C\": 1}, \"37\": {\"C\": 1}, \"38\": {\"C\": 1}, \"39\": {\"C\": 1}, \"40\": {\"C\": 1}, \"41\": {\"C\": 1}, \"42\": {\"C\": 1}, \"43\": {\"C\": 1}, \"44\": {\"C\": 1}, \"45\": {\"C\": 1}, \"46\": {\"C\": 1}, \"47\": {\"C\": 1}, \"48\": {\"O\": 1}, \"49\": {\"O\": 1}, \"50\": {\"O\": 1}, \"51\": {\"O\": 1}, \"52\": {\"O\": 1}, \"53\": {\"O\": 1}, \"54\": {\"O\": 1}, \"55\": {\"O\": 1}}" energy=-315.21038818359375 free_energy=-315.21038818359375 stress="0.0014445986598730087 -0.000562925124540925 8.817604424393721e-08 -0.000562925124540925 -0.0008545911405235529 -5.10639743822594e-08 8.817604424393721e-08 -5.10639743822594e-08 0.0015755899948999286" pbc="T T T"
H       -0.01146673       2.27735378       1.83228362        0       0.05954344      -0.00327689       0.06233844
H        0.46354042      -0.32622644       8.65189388        1      -0.05491721       0.02317617      -0.06235542
H        7.11783644      -0.62125594       5.76730111        2       0.06303637      -0.00415066      -0.05874483
H        3.54784285       0.20590514       4.71687609        3      -0.05845523       0.02398667       0.05874050
H        5.94073498       0.08912524       3.40980510        4      -0.05953947       0.00327841      -0.06233682
H        4.91741780       0.32622655       7.07437240        5       0.05491413      -0.02317046       0.06236518
H       -1.73687825       0.62125611       9.95896513        6      -0.06303856       0.00415836       0.05874520
H        2.38142539       2.16057389       0.52521268        7       0.05845571      -0.02398812      -0.05874331
H       -1.38551754       1.18149074       2.11598468        8      -0.01114996       0.08954941       0.00594645
H       -8.44966009       2.81824229       8.36819218        9       0.04931271       0.07553663      -0.00592635
H       -2.58205883       2.70548917       6.85853646       10       0.02489173       0.08117927       0.03102856
H       -6.70482302       3.66072964       3.62563947       11       0.01337834       0.08383629      -0.03101412
H       -3.44713061       1.18498829       3.12610408       12       0.01115929      -0.08955155      -0.00594440
H       -6.59659445       1.91471578       7.35807408       13      -0.04930613      -0.07554537       0.00593435
H       -1.70227922       2.02746897       8.86772962       14      -0.02490134      -0.08118923      -0.03099559
H       -7.79312147       3.43870743       1.61644925       15      -0.01337464      -0.08383910       0.03100636
H       -0.77623955       0.71965044       4.36329758       16      -0.01323461      -0.01213528       0.02308625
H        1.56195590       2.67141835       6.12088029       17       0.00653426      -0.01672799      -0.02309606
H       -0.46326720       1.89389614       6.16073603       18       0.01919672      -0.01968171       0.01018736
H        0.70065483      -0.86930480       4.32344242       19      -0.02583000      -0.00920783      -0.01018423
H        6.70550784       1.64682866       0.87879114       20       0.01323247       0.01213497      -0.02308465
H       -5.84629404       2.06153965       9.60538592       21      -0.00653605       0.01672662       0.02309502
H        5.84422538      -1.89389611       9.56553024       22      -0.01918993       0.01966944      -0.01017777
H       -5.53330301       3.23578382       0.91864627       23       0.02584146       0.00921554       0.01018906
H        0.25118892       0.51320652       1.94904363       24      -0.01401102      -0.01703132      -0.02868447
H       -0.54820846      -1.79509606       8.53513266       25       0.00518292      -0.02145634       0.02868123
H       -2.80824660       2.46883416       5.11321221       26      -0.03240799      -0.01272119       0.00990980
H       -6.60574339       3.34870703       5.37096440       27       0.02347669      -0.02566479      -0.00992745
H       -5.08383702       1.85327247       3.29304511       28       0.01400339       0.01703863       0.02868871
H       -4.83274949       1.79509621       7.19113351       29      -0.00520927       0.02144554      -0.02866456
H       -0.92778153       4.63060280       0.12887635       30       0.03240967       0.01272162      -0.00991092
H        2.32140524       1.38425107      10.35530181       31      -0.02347619       0.02567122       0.00991862
C       -0.12855714       1.44666452       3.84724418       32      -0.06474213      -0.02297810       0.02711251
C        0.20337421      -1.12376651       6.63693319       33       0.04808327      -0.04911399      -0.02706069
C       -0.77313051       2.84277400       5.69386795       34       0.01803374      -0.04222263       0.05795710
C        1.39625479      -0.15339355       4.79030935       35      -0.03474537      -0.02991351      -0.05791894
C        6.05782526       0.91981443       1.39484461       36       0.06475827       0.02297457      -0.02710679
C       -5.58433221       1.12376662       9.08933301       37      -0.04809048       0.04911330       0.02707621
C       -3.51120741       1.89018399      10.03239813       38      -0.01806873       0.04223037      -0.05796631
C        4.53301351       2.51987246       0.45177955       39       0.03474668       0.02992409       0.05790956
C       -0.32629466       1.35816528       2.34320609       40       0.01376326       0.00373054      -0.01267863
C        0.34204071      -1.29021282       8.14097363       41      -0.01071848       0.00946835       0.01263781
C       -2.26788797       3.05478920       5.86652619       42      -0.01084377       0.00948861      -0.01263905
C        2.83194261      -0.62035932       4.61765399       43       0.01386692       0.00375751       0.01261453
C        6.25556282       1.00831377       2.89888263       44      -0.01376729      -0.00373892       0.01266733
C       -5.72299918       1.29021259       7.58529264       45       0.01074439      -0.00945061      -0.01267767
C       -2.01645027       1.67816877       9.85974053       46       0.01086681      -0.00949165       0.01260903
C        3.09732573       2.98683831       0.62443475       47      -0.01388522      -0.00375843      -0.01259700
O       -0.42617556       2.75832689       4.28195553       48      -0.00160930      -0.01560043      -0.00606968
O        1.04750942      -0.07664205       6.20222131       49      -0.00535031      -0.01474473       0.00606448
O       -1.17299331      -0.80891944       6.27987374       50      -0.00940087      -0.01381558      -0.00193556
O        1.24603232       1.12411994       4.20430308       51       0.00225474      -0.01656118       0.00193345
O       -3.30985251       4.34111018       0.96013316       52       0.00160972       0.01560165       0.00605982
O        4.33344871       0.07664207       9.52404499       53       0.00535041       0.01474249      -0.00606563
O       -4.20796491       0.80891947       9.44639258       54       0.00941817       0.01382497       0.00193518
O        4.68323599       1.24235916       1.03778562       55      -0.00226676       0.01654565      -0.00193133
