4
Lattice="3.128588 0.0 0.0 -1.5642939988088433 2.709436998432005 0.0 0.0 0.0 5.016955" Properties=species:S:1:pos:R:3:spacegroup_kinds:I:1:forces:R:3 spacegroup="P 1" unit_cell=conventional occupancy="_JSON {\"0\": {\"Al\": 1}, \"1\": {\"Al\": 1}, \"2\": {\"N\": 1}, \"3\": {\"N\": 1}}" energy=-29.673715591430664 free_energy=-29.673715591430664 stress="-0.0022253652568906546 -1.3511312317859847e-06 -3.795339864609559e-08 -1.3511312317859847e-06 -0.0022273173090070486 -2.8195008994202908e-08 -3.795339864609559e-08 -2.8195008994202908e-08 -0.005453724879771471" pbc="T T T"
Al       1.56429556       0.90314476       2.50490041        0      -0.00003425       0.00002023       0.00553264
Al      -0.00000156       1.80629224       5.01337791        1       0.00003568      -0.00001837       0.00552389
N        1.56429556       0.90314476       4.41849749        2      -0.00003761       0.00001905      -0.00552996
N       -0.00000156       1.80629224       1.91001999        3       0.00003608      -0.00002090      -0.00552598
