56
Lattice="10.7619164 0.0 0.0 -9.665296305262016 4.732958053065482 0.0 -0.5483100463354086 -2.3664790220718444 10.484177494289693" Properties=species:S:1:pos:R:3:spacegroup_kinds:I:1:momenta:R:3:forces:R:3 spacegroup="P 1" unit_cell=conventional occupancy="_JSON {\"0\": {\"H\": 1}, \"1\": {\"H\": 1}, \"2\": {\"H\": 1}, \"3\": {\"H\": 1}, \"4\": {\"H\": 1}, \"5\": {\"H\": 1}, \"6\": {\"H\": 1}, \"7\": {\"H\": 1}, \"8\": {\"H\": 1}, \"9\": {\"H\": 1}, \"10\": {\"H\": 1}, \"11\": {\"H\": 1}, \"12\": {\"H\": 1}, \"13\": {\"H\": 1}, \"14\": {\"H\": 1}, \"15\": {\"H\": 1}, \"16\": {\"H\": 1}, \"17\": {\"H\": 1}, \"18\": {\"H\": 1}, \"19\": {\"H\": 1}, \"20\": {\"H\": 1}, \"21\": {\"H\": 1}, \"22\": {\"H\": 1}, \"23\": {\"H\": 1}, \"24\": {\"H\": 1}, \"25\": {\"H\": 1}, \"26\": {\"H\": 1}, \"27\": {\"H\": 1}, \"28\": {\"H\": 1}, \"29\": {\"H\": 1}, \"30\": {\"H\": 1}, \"31\": {\"H\": 1}, \"32\": {\"C\": 1}, \"33\": {\"C\": 1}, \"34\": {\"C\": 1}, \"35\": {\"C\": 1}, \"36\": {\"C\": 1}, \"37\": {\"C\": 1}, \"38\": {\"C\": 1}, \"39\": {\"C\": 1}, \"40\": {\"C\": 1}, \"41\": {\"C\": 1}, \"42\": {\"C\": 1}, \"43\": {\"C\": 1}, \"44\": {\"C\": 1}, \"45\": {\"C\": 1}, \"46\": {\"C\": 1}, \"47\": {\"C\": 1}, \"48\": {\"O\": 1}, \"49\": {\"O\": 1}, \"50\": {\"O\": 1}, \"51\": {\"O\": 1}, \"52\": {\"O\": 1}, \"53\": {\"O\": 1}, \"54\": {\"O\": 1}, \"55\": {\"O\": 1}}" energy=-313.6218566894531 free_energy=-313.6218566894531 stress="-0.0069055100902915 -0.0013852567644789815 -0.004504712298512459 -0.0013852567644789815 0.009439070709049702 0.005599984899163246 -0.004504712298512459 0.005599984899163246 0.013407155871391296" pbc="T T T"
H        0.49738824       1.84331576       1.77824701        0      -0.10613461      -0.09781580       0.11564485      -0.18202199       0.31332529       0.59539664
H        0.10556118      -0.11663744       8.27653529        1       0.04015906      -0.13169654       0.14437858      -0.36897397      -0.78897488       0.22591171
H        6.62289123      -0.91207443       5.20265648        2      -0.16864298       0.10450132      -0.19163943       0.98594737      -0.03108836       0.77323020
H        3.36922864       0.56254878       5.08036090        3       0.12068425      -0.12390829       0.11664130      -0.39408666      -0.59534383      -0.23536457
H        5.95301285       0.59228791       3.38812079        4       0.14111111      -0.33747267      -0.07871886      -0.93092185      -0.50391710       0.87668014
H        5.01743970       0.42520648       7.32442037        5      -0.23162846       0.06489527      -0.14197678      -0.38864374      -1.26107883      -0.47849143
H       -1.57731849       0.54128611      10.53958313        6      -0.12407260      -0.08816672      -0.07763801      -0.37742463      -0.46801671       0.30721742
H        2.69863414       2.00433384       0.26116731        7      -0.05404056       0.01557192      -0.10225936      -0.72494745      -0.67532468      -0.86530030
H       -1.22304007       1.63673990       1.75940542        8      -0.05424940       0.24253136      -0.13897917      -0.49741372      -0.09367266       0.10530324
H       -8.93359069       2.96970988       8.47514807        9      -0.06041839      -0.12559669      -0.10761881       0.36623174      -0.63053077       0.55258721
H       -2.26849143       4.25936893       6.83350197       10       0.20578852       0.12214579       0.33238180      -0.06949994      -0.47618884      -0.34377754
H       -6.68836072       4.95609529       3.39407432       11      -0.06212325       0.10326005      -0.15892817       0.13253924      -0.56485552       0.15245502
H       -3.12925579       0.32645856       3.01954340       12       0.09286572       0.17897899      -0.00989696       0.31408846       0.11225884       0.01380471
H       -6.80751078       1.79512294       7.74588614       13       0.11313872      -0.05419732      -0.04504050      -2.35592556       0.59493822      -0.52510273
H       -1.67751153       0.97559879       8.80862387       14       0.00516094      -0.30016374      -0.16851538      -0.66054398       0.17537458       0.81925768
H       -7.85157869       2.25969185       2.02092904       15       0.06193770       0.16966493       0.04109061       0.45021671       0.30492979      -0.97371995
H       -1.03679277       0.54726091       4.10971773       16       0.09384568       0.18126147      -0.07858719       0.29054266       0.47455934       0.73892897
H        1.41496406       2.60741847       5.94194833       17       0.17914771       0.16207917      -0.08142824       0.04019766      -0.18982650       0.67822707
H       -0.64058353       2.00872488       6.06364843       18      -0.05634272       0.12337203       0.04032520      -0.53550911       0.51594353      -0.09274961
H        0.85977733      -0.92446387       4.06230129       19       0.08226711       0.01615481       0.13954159      -0.43778273      -0.05475703       0.42651951
H        7.07832348       1.52716390       0.77918339       20       0.03745975       0.06298916      -0.11847514      -0.51152152      -0.36470464      -0.19009095
H       -5.65481839       2.28567729       9.73114952       21       0.07723516       0.36926502      -0.07796219       0.09997284      -0.39056927       0.05156412
H        6.08095743      -2.02800075       9.57309350       22       0.04996182       0.13992175      -0.04251276       0.10451902      -0.44055539      -0.00563454
H       -5.39307760       3.26285577       1.28813613       23      -0.08191803      -0.05415403       0.26987108      -0.86362630      -0.75488067      -0.77637118
H       -0.07299368       0.27971744       1.81917007       24       0.13898037       0.34269238       0.14181093      -0.42564118      -0.34437752       0.62044680
H       -1.06699976      -1.51563960       8.21163902       25      -0.20145905       0.01373071       0.07616550      -0.17212522      -0.24385598       0.51164997
H       -2.96209888       2.60530183       6.43440243       26       0.06315645      -0.07175117      -0.16381458       0.16209920       0.09859171       0.31126177
H       -6.35720010       3.51669286       4.57538976       27       0.16449758       0.18567767       0.02440256      -0.60310340       1.40274239      -0.34498805
H       -3.82677281       2.00991112       3.18430532       28       0.08980674      -0.11710575      -0.00472066       0.23108777       0.02061329      -0.20068419
H       -5.17636495       2.03285249       7.19923486       29       0.10905468      -0.18779579       0.15105807      -0.36807373      -0.23564111       0.74253070
H       -0.79357747       4.53174445      -0.43569501       30      -0.12627897      -0.10201361      -0.01900671      -0.09976336       0.06219468       0.11299438
H        2.31575699       1.30675591      11.36317814       31       0.12164032       0.07458712      -0.08519350       0.08104010      -0.48912209      -0.09376696
C       -0.37163608       1.38708497       3.80590667       32       0.82677691       0.29513675       0.09766107       0.43048573      -0.84295565      -2.02713704
C        0.11847920      -1.18778278       6.49983787       33      -0.62840350      -0.18736849      -0.14628197      -0.37042120       0.27213794      -0.96541661
C       -0.97555879       2.96185321       5.57576506       34      -0.36449200      -1.07571482       0.20948587       0.37154347       0.17797711       0.59155297
C        1.35011575      -0.15700500       4.68315324       35      -0.02227801       0.95830915       0.13073097       0.73835325       1.50495505       0.40339938
C        6.36784106       0.86650849       1.33870132       36       0.30590344       0.88519463       1.28776841       1.97926736      -0.30295855       0.89316821
C       -5.53677833       1.29363394       9.24627709       37       0.27688674      -0.37684327       0.66636801      -0.66257906      -0.77058095       0.58602977
C       -3.39932680       1.69730074      10.02118756       38      -0.84111707      -0.44256824       0.59809643       0.37919968       0.54999524       0.65976399
C        4.71880445       2.50518178       0.70336295       39       0.38984782       0.88224139      -0.51305366      -0.59656775       1.44280219       0.49372917
C       -0.32683935       1.26219673       2.24609218       40      -0.63948390       0.50546117       0.23424498       0.77351809       0.79702890      -0.39455438
C       -0.05210442      -1.19852051       8.01058160       41       0.11582230      -0.65736507      -0.92748313       0.85169929       1.37445652      -1.02301860
C       -2.37909927       3.46525764       6.06278720       42      -0.05353496       0.08467003      -0.15003139      -0.40584892      -0.60533887      -1.67188740
C        2.83806342      -0.17358536       4.41939540       43       0.55229917       0.76816281      -0.43150085       1.06821620      -0.67908871       0.54367226
C        6.77902018       0.98017853       2.84378921       44      -1.12306936      -0.45029175       0.26639865      -0.51441598       0.02888554      -1.28143573
C       -5.86817694       1.36776525       7.79427924       45      -0.98980064      -0.05587828      -0.83441632       2.87884545       1.13960791      -0.55462885
C       -1.97699415       1.28319930       9.85895609       46       0.40696753      -0.18668609       0.33790909       1.72742343       0.51333457      -1.56751084
C        3.19008772       2.61285381       0.97606098       47       0.25747559       0.90120811      -0.18333062       1.07155132       1.22872567       1.82995725
O       -0.85758716       2.66103196       4.11713039       48       0.61684457      -0.37118716       1.25663784      -0.17584920       0.40346900       1.06925023
O        1.08909385      -0.23997550       6.12862844       49      -0.39618466      -0.37804441      -0.11483586       0.12260321      -0.37597474      -0.82797074
O       -1.16050469      -0.72093716       5.97406341       50      -0.34983838      -1.05740221      -0.27246479      -0.47366664      -0.41497850      -0.96765161
O        1.00795481       1.19208943       4.24044436       51      -0.03057007       0.15482514      -1.24559179      -1.03327525      -0.52625620       0.63129234
O       -3.10184416       4.20162622       0.97719072       52      -0.29226537       0.28802428      -0.94690521      -0.31202182       1.32850862      -0.04797956
O        4.30825701       0.33413972       9.75623662       53       0.02704182      -1.15722800      -0.33727192      -0.25940624       0.04012457       0.50475788
O       -4.24389652       0.74756656       9.49746222       54       0.41595537      -0.82784304       0.02625861       0.13963428       0.06729901      -0.42571419
O        5.02961364       1.21054929       1.07684126       55       0.87862615       0.61974451       1.29120813      -0.01922196      -0.82936436       0.05840740
