56
Lattice="10.7619164 0.0 0.0 -9.665296305262016 4.732958053065482 0.0 -0.5483100463354086 -2.3664790220718444 10.484177494289693" Properties=species:S:1:pos:R:3:spacegroup_kinds:I:1:momenta:R:3:forces:R:3 spacegroup="P 1" unit_cell=conventional occupancy="_JSON {\"0\": {\"H\": 1}, \"1\": {\"H\": 1}, \"2\": {\"H\": 1}, \"3\": {\"H\": 1}, \"4\": {\"H\": 1}, \"5\": {\"H\": 1}, \"6\": {\"H\": 1}, \"7\": {\"H\": 1}, \"8\": {\"H\": 1}, \"9\": {\"H\": 1}, \"10\": {\"H\": 1}, \"11\": {\"H\": 1}, \"12\": {\"H\": 1}, \"13\": {\"H\": 1}, \"14\": {\"H\": 1}, \"15\": {\"H\": 1}, \"16\": {\"H\": 1}, \"17\": {\"H\": 1}, \"18\": {\"H\": 1}, \"19\": {\"H\": 1}, \"20\": {\"H\": 1}, \"21\": {\"H\": 1}, \"22\": {\"H\": 1}, \"23\": {\"H\": 1}, \"24\": {\"H\": 1}, \"25\": {\"H\": 1}, \"26\": {\"H\": 1}, \"27\": {\"H\": 1}, \"28\": {\"H\": 1}, \"29\": {\"H\": 1}, \"30\": {\"H\": 1}, \"31\": {\"H\": 1}, \"32\": {\"C\": 1}, \"33\": {\"C\": 1}, \"34\": {\"C\": 1}, \"35\": {\"C\": 1}, \"36\": {\"C\": 1}, \"37\": {\"C\": 1}, \"38\": {\"C\": 1}, \"39\": {\"C\": 1}, \"40\": {\"C\": 1}, \"41\": {\"C\": 1}, \"42\": {\"C\": 1}, \"43\": {\"C\": 1}, \"44\": {\"C\": 1}, \"45\": {\"C\": 1}, \"46\": {\"C\": 1}, \"47\": {\"C\": 1}, \"48\": {\"O\": 1}, \"49\": {\"O\": 1}, \"50\": {\"O\": 1}, \"51\": {\"O\": 1}, \"52\": {\"O\": 1}, \"53\": {\"O\": 1}, \"54\": {\"O\": 1}, \"55\": {\"O\": 1}}" energy=-315.20623779296875 free_energy=-315.20623779296875 stress="0.0015259803039953113 -0.0007349748048000038 -5.98815802277386e-07 -0.0007349748048000038 -0.0014768081018701196 6.289518950097772e-08 -5.98815802277386e-07 6.289518950097772e-08 0.0016979636857286096" pbc="T T T"
H       -0.01248427       2.27696696       1.83153339        0       0.26354636       0.05758816       0.17128558       0.07122697       0.02707789       0.05251680
H        0.46428407      -0.32702137       8.65264411        1       0.35723632       0.30052336      -0.15421514      -0.05205588       0.05564412      -0.05251617
H        7.11696904      -0.62167877       5.76820574        2       0.13651140      -0.03657588      -0.02448058       0.06071801       0.02959736      -0.06332492
H        3.54843712       0.20514534       4.71597175        3       0.04495575       0.01373704       0.24194406      -0.04159901       0.05318641       0.06330323
H        5.94175252       0.08951207       3.41055536        4       0.10004105       0.00919574       0.06893732      -0.07122649      -0.02707701      -0.05251781
H        4.91667413       0.32702137       7.07362213        5       0.03762731       0.23702154      -0.03633186       0.05205634      -0.05563832       0.05251948
H       -1.73601084       0.62167878       9.95806050        6       0.04090260      -0.15000140      -0.41043770      -0.06071934      -0.02958703       0.06332420
H        2.38083113       2.16133369       0.52611700        7       0.07639930       0.13373956      -0.11953039       0.04159822      -0.05318587      -0.06330194
H       -1.38564785       1.18011340       2.11584331        8       0.34764813      -0.24942510       0.01968671       0.00912152       0.09641425       0.00989620
H       -8.45014457       2.81694541       8.36833418        9      -0.04487542       0.24826795       0.27191556       0.03391398       0.09078163      -0.00993983
H       -2.58250803       2.70418269       6.85836100       10       0.00836639       0.05472545      -0.13232917       0.03144354       0.09145351       0.01228193
H       -6.70499477       3.65935988       3.62581649       11      -0.35280026      -0.06406840       0.05024236       0.01202252       0.09588327      -0.01239188
H       -3.44700030       1.18636563       3.12624543       12       0.17759995       0.19181929      -0.04741865      -0.00912152      -0.09641433      -0.00989492
H       -6.59610993       1.91601265       7.35793206       13      -0.06659844      -0.18039638      -0.21144164      -0.03391591      -0.09078118       0.00994133
H       -1.70183007       2.02877537       8.86790524       14      -0.29590695       0.31510437      -0.07166042      -0.03144007      -0.09144838      -0.01229347
H       -7.79294969       3.44007720       1.61627226       15      -0.10166361      -0.21365327       0.15571300      -0.01202465      -0.09588420       0.01238995
H       -0.77544238       0.72057867       4.36236141       16      -0.29135246      -0.04383699      -0.13778795      -0.05580242      -0.06497552       0.06553179
H        1.56164860       2.67260202       6.12181608       17       0.04513471      -0.09416448      -0.19034861       0.02151164      -0.08285704      -0.06550502
H       -0.46393564       1.89516633       6.16016720       18      -0.02388752       0.06229365       0.02104621       0.04679050      -0.08891334       0.03981810
H        0.70181139      -0.86845994       4.32401029       19       0.02574107      -0.11427781      -0.05287528      -0.08095931      -0.05914075      -0.03975136
H        6.70471062       1.64590036       0.87972733       20      -0.14286290      -0.07079985      -0.14118650       0.05580533       0.06498127      -0.06553396
H       -5.84598670       2.06035604       9.60445016       21      -0.29753233       0.02254640      -0.04431235      -0.02151373       0.08285301       0.06550344
H        5.84489385      -1.89516633       9.56609904       22      -0.28312851       0.06560536      -0.15494221      -0.04679308       0.08891538      -0.03981610
H       -5.53445954       3.23493897       0.91807845       23      -0.02208037       0.11416853       0.04301970       0.08095711       0.05914038       0.03974688
H        0.25131050       0.51347389       1.94957474       24       0.15959789      -0.21361364       0.07505588      -0.00851066      -0.01871635      -0.03717769
H       -0.54820374      -1.79480395       8.53460275       25      -0.12868866      -0.15316038      -0.08588331      -0.00033060      -0.02044802       0.03709361
H       -2.80766320       2.46899490       5.11315433       26      -0.07305533       0.00146869      -0.17781296      -0.04083798      -0.01125205       0.00405148
H       -6.60619587       3.34910738       5.37102316       27       0.12888264       0.07074453      -0.23064715       0.03167424      -0.02802472      -0.00411341
H       -5.08395866       1.85300514       3.29251401       28       0.22099581       0.30740365       0.21601993       0.00851483       0.01871255       0.03717728
H       -4.83275446       1.79480396       7.19166349       29      -0.04673026      -0.18471461       0.19482948       0.00034714       0.02045727      -0.03709868
H       -0.92836486       4.63044218       0.12893441       30      -0.09883902       0.19431951       0.04569436       0.04083304       0.01124321      -0.00406399
H        2.32185777       1.38385068      10.35524308       31       0.15211596       0.04921952       0.12080102      -0.03167594       0.02802818       0.00411068
C       -0.12835063       1.44534837       3.84841655       32      -0.28778073       0.91754073       0.18270710      -0.01445578       0.09213161      -0.08206755
C        0.20260826      -1.12485611       6.63576095       33       0.00096406       0.97078231      -0.67128192       0.05361657       0.07627164       0.08205840
C       -0.77226604       2.84130358       5.69336968       34      -0.96473690       0.45234422      -0.54337998      -0.06051213       0.10292982       0.03487857
C        1.39483372      -0.15433229       4.79080781       35       0.83737779      -0.34833687      -0.35976593       0.09947395       0.06571141      -0.03489130
C        6.05761888       0.92113066       1.39367220       36       0.73780001       0.71679960       1.01054651       0.01444731      -0.09213793       0.08206719
C       -5.58356646       1.12485611       9.09050530       37       0.36600935      -0.57579551       1.35161317      -0.05360238      -0.07626285      -0.08206037
C       -3.51207206       1.89165448      10.03289656       38      -0.27702103       0.36712178       0.74445208       0.06052634      -0.10293316      -0.03488919
C        4.53443453       2.52081132       0.45128094       39      -0.47025582       0.22782501       0.51146167      -0.09947166      -0.06572062       0.03490315
C       -0.32593927       1.35886302       2.34265801       40      -0.11966996      -0.73251108       0.28611321      -0.02487621      -0.04884134       0.03836703
C        0.34202778      -1.28942579       8.14151949       41       0.57030904      -0.50578053       0.01064034       0.00090573      -0.05509102      -0.03821065
C       -2.26824862       3.05565688       5.86632716       42      -0.48098077       0.96238649       0.55365818       0.02524441      -0.06073736       0.01393132
C        2.83264719      -0.61974062       4.61785033       43      -0.04860277      -0.55844948       0.33742963      -0.04931913      -0.04330835      -0.01374376
C        6.25520752       1.00761601       2.89943074       44      -0.70747446      -0.11378709      -0.42767829       0.02487160       0.04884291      -0.03836553
C       -5.72298598       1.28942580       7.58474676       45       0.19434055       0.24831833       0.14297097      -0.00092384       0.05507627       0.03821251
C       -2.01608948       1.67730118       9.85993908       46       0.09740524      -0.72425149      -0.69205550      -0.02525599       0.06073110      -0.01389953
C        3.09662106       2.98621965       0.62423841       47      -0.12331172      -0.02208015       0.38636924       0.04932707       0.04330540       0.01374389
O       -0.42625656       2.75924355       4.28180099       48       1.20625674       0.48604619      -0.44497158       0.00567054      -0.06416602       0.01081763
O        1.04798334      -0.07585512       6.20237650       49       0.42305791      -1.01659881      -0.20166176      -0.03317410      -0.05508573      -0.01086383
O       -1.17294689      -0.80803189       6.28015861       50      -0.36133290       0.99731317      -0.30860065      -0.00324924      -0.06212831      -0.01994186
O        1.24638404       1.12493657       4.20401888       51      -0.92624698      -0.21254257      -0.34164539      -0.02462047      -0.05716430       0.01989357
O       -3.30977150       4.34019353       0.96028775       52       0.26500009      -0.83301049      -0.49473951      -0.00567114       0.06416596      -0.01082095
O        4.33297486       0.07585512       9.52388974       53      -0.48283211      -0.49689578       1.25894465       0.03316876       0.05508588       0.01086721
O       -4.20801131       0.80803190       9.44610763       54       0.43498781      -0.06064940      -0.51538975       0.00324789       0.06213082       0.01994682
O        4.68288421       1.24154246       1.03806987       55       0.06343698      -0.82659266      -1.04828579       0.02462425       0.05716863      -0.01989732
56
Lattice="10.7619164 0.0 0.0 -9.665296305262016 4.732958053065482 0.0 -0.5483100463354086 -2.3664790220718444 10.484177494289693" Properties=species:S:1:pos:R:3:spacegroup_kinds:I:1:momenta:R:3:forces:R:3 spacegroup="P 1" unit_cell=conventional occupancy="_JSON {\"0\": {\"H\": 1}, \"1\": {\"H\": 1}, \"2\": {\"H\": 1}, \"3\": {\"H\": 1}, \"4\": {\"H\": 1}, \"5\": {\"H\": 1}, \"6\": {\"H\": 1}, \"7\": {\"H\": 1}, \"8\": {\"H\": 1}, \"9\": {\"H\": 1}, \"10\": {\"H\": 1}, \"11\": {\"H\": 1}, \"12\": {\"H\": 1}, \"13\": {\"H\": 1}, \"14\": {\"H\": 1}, \"15\": {\"H\": 1}, \"16\": {\"H\": 1}, \"17\": {\"H\": 1}, \"18\": {\"H\": 1}, \"19\": {\"H\": 1}, \"20\": {\"H\": 1}, \"21\": {\"H\": 1}, \"22\": {\"H\": 1}, \"23\": {\"H\": 1}, \"24\": {\"H\": 1}, \"25\": {\"H\": 1}, \"26\": {\"H\": 1}, \"27\": {\"H\": 1}, \"28\": {\"H\": 1}, \"29\": {\"H\": 1}, \"30\": {\"H\": 1}, \"31\": {\"H\": 1}, \"32\": {\"C\": 1}, \"33\": {\"C\": 1}, \"34\": {\"C\": 1}, \"35\": {\"C\": 1}, \"36\": {\"C\": 1}, \"37\": {\"C\": 1}, \"38\": {\"C\": 1}, \"39\": {\"C\": 1}, \"40\": {\"C\": 1}, \"41\": {\"C\": 1}, \"42\": {\"C\": 1}, \"43\": {\"C\": 1}, \"44\": {\"C\": 1}, \"45\": {\"C\": 1}, \"46\": {\"C\": 1}, \"47\": {\"C\": 1}, \"48\": {\"O\": 1}, \"49\": {\"O\": 1}, \"50\": {\"O\": 1}, \"51\": {\"O\": 1}, \"52\": {\"O\": 1}, \"53\": {\"O\": 1}, \"54\": {\"O\": 1}, \"55\": {\"O\": 1}}" energy=-314.163330078125 free_energy=-314.163330078125 stress="0.0017965518636628985 -0.006295060273259878 0.0040649548172950745 -0.006295060273259878 0.0028975727036595345 0.0068001518957316875 0.0040649548172950745 0.0068001518957316875 -0.004473574459552765" pbc="T T T"
H        0.12223867       2.21335583       1.84744824        0      -0.06388232      -0.04108022      -0.23331080      -0.34890503      -0.46717724       0.26391670
H        0.31702076      -0.21474889       8.50409126        1      -0.41596662       0.28241798       0.13417993       0.19316797      -0.82259059      -0.04441986
H        7.16689579      -0.52337016       5.79422141        2      -0.01099347       0.09115200       0.18553094      -0.25331384       0.53084266      -0.08150247
H        3.56769341       0.19128017       4.81695805        3       0.00635038       0.03106403      -0.05661321      -0.45246881      -0.59983218       0.03513511
H        5.89857393       0.12906194       3.45590348        4      -0.13662970       0.06346634       0.07412534      -0.11012669      -0.04154614      -0.10463305
H        5.01440550       0.32414382       7.14335938        5       0.11996958      -0.01313406       0.16304588      -0.17231512      -0.44180441      -0.12289543
H       -1.69404179       0.62953429       9.70230142        6      -0.06773579       0.00953621      -0.07983935      -0.29939827      -0.31745818       0.05526237
H        2.37945909       2.25462948       0.31380993        7      -0.10899661       0.12801599      -0.23887812      -0.36571014      -0.41984656      -0.02494896
H       -1.28062220       1.09681353       2.00394189        8       0.10394068       0.17626282      -0.14567630      -0.56132370      -0.12197558      -0.18949583
H       -8.36548922       3.00985762       8.44664937        9       0.01874447       0.07750791      -0.14054378       0.39232016      -0.31946748      -0.01170153
H       -2.54664928       2.78893573       6.82205309       10       0.03048607       0.25775608      -0.04488788      -0.41237357      -0.20837834       1.19028437
H       -6.74143411       3.80633209       3.57290636       11       0.32050250       0.15943868       0.02898759       0.31104109       0.03236904       0.37734926
H       -3.41360534       1.09458053       3.05616293       12       0.34318420      -0.23802482       0.07743265      -0.50853902       0.08234600       0.33156073
H       -6.59466948       1.88031609       7.31880477       13       0.01536719       0.03548276       0.08656139      -0.08189741      -0.12137309       0.20796441
H       -1.92963189       2.16013645       8.81427837       14       0.12531084      -0.02323645      -0.06973026       0.40313646      -0.12264360      -0.32056412
H       -7.86690874       3.29972354       1.71696138       15      -0.08477305      -0.03159826       0.12293913      -0.01433802      -0.41004682      -0.77137721
H       -0.90235490       0.77646753       4.33988641       16      -0.08685995      -0.05814800       0.28342561       0.40912482       0.11714687       0.19912331
H        1.57326845       2.69585856       6.02312945       17       0.00715143      -0.12380909      -0.16254831      -0.29899055      -0.23122966       0.25480539
H       -0.61632286       1.91476306       6.12879314       18      -0.08876032       0.01924329      -0.05101221       0.36619473      -0.32495376       0.18464875
H        0.76835886      -0.91704693       4.28843425       19      -0.15605142       0.01894760       0.06988647      -0.03238194       0.22899801       0.08527485
H        6.70609323       1.62092023       0.91686462       20       0.01929198      -0.19191481       0.26163578       0.76997292       0.63578141      -0.47934857
H       -5.82009077       2.01052708       9.75507010       21       0.30326581       0.03656597       0.14022312      -0.00922765      -0.03740995      -0.50983769
H        5.81093414      -1.87039272       9.61285223       22       0.20657588       0.20659811      -0.02039166       0.37428090      -0.52969098       0.33497971
H       -5.59543433       3.24736141       1.04015519       23      -0.04224146      -0.11355004       0.21265870       0.13947210      -0.29077935      -0.10894909
H        0.42784609       0.48710584       2.10176739       24       0.30049800      -0.13611006      -0.00468408      -0.59484601       0.09816519      -0.19185066
H       -0.53518872      -1.77813129       8.52127421       25       0.00655556       0.08690828       0.10595498       0.65831894      -0.06782461      -0.13440558
H       -2.96285667       2.59157642       5.13270575       26      -0.25300686       0.03340901       0.06572286       0.52107406       0.35914809       0.31286949
H       -6.55716736       3.24215833       5.23786861       27      -0.16752548      -0.02805252      -0.10766393       0.03741217      -0.88641047       0.79594219
H       -5.03685277       1.93128231       3.36334310       28      -0.15021160       0.12582565      -0.10191872       0.62859172      -0.83863455      -0.54655379
H       -4.85344610       1.77016487       7.27072607       29      -0.06649167       0.16884089       0.01181283       1.25072992       0.88673592      -0.39224550
H       -0.86175586       4.56432684       0.03964656       30       0.17846389      -0.19144303      -0.07943180      -0.39176115      -0.36752552      -0.55813450
H        2.38301369       1.54051149      10.51636398       31      -0.19060848       0.01911308       0.25222929       0.14690898      -0.16933852       0.11266251
C       -0.17581896       1.46226532       3.84974165       32      -0.18515643      -0.57459572      -0.22058203       0.27883154      -0.44003445       0.08531457
C        0.22192600      -1.12504879       6.58997346       33      -0.07512335      -0.46550101       0.08488211      -0.55275714      -0.80494571       0.23250496
C       -0.84336859       2.87265025       5.66245298       34       0.04319832       0.29158541      -0.23378170       1.13018036       0.50398898      -0.24388707
C        1.43229076      -0.18392810       4.79404744       35      -0.39846574      -0.16641810      -0.07506733      -1.39262629       0.15177429      -0.49470693
C        6.06713488       0.93900034       1.43224267       36      -0.39497097      -0.32073236      -0.80955271      -1.35843873      -1.50483525      -0.67591816
C       -5.58329452       1.10380716       9.15771829       37      -0.36193230      -0.01752115       0.07000795      -0.01275334       0.62094802      -0.17375582
C       -3.52181740       1.89477509      10.09402551       38       0.16177552      -0.52863252       0.28467023       0.13258323       0.16549718      -2.07575393
C        4.51640582       2.52102927       0.51005712       39       0.36138339      -0.43527629       0.58505076       0.14680174       0.12096843       0.07940561
C       -0.28405292       1.30051716       2.35611376       40       0.19195188      -0.55821533       0.03644889       1.44869947       0.72397053      -0.52214789
C        0.37449210      -1.27541846       8.11748206       41       0.14753479       0.49373614      -0.46888115      -1.73078156       1.54831457      -0.36516926
C       -2.30636824       3.14844780       5.85186587       42      -0.25949151       1.26103875      -0.54787143      -0.30482945      -0.37169647      -1.63763511
C        2.84200268      -0.65064888       4.64737901       43       0.56034553      -0.10141687      -0.32885460       0.85266721       1.99937105      -1.91112053
C        6.24443653       1.02088159       2.92126916       44       0.40080576      -0.06552337       0.31202170       0.30223882       0.54350489       0.34550369
C       -5.72072981       1.29321541       7.63361806       45      -0.11247080      -0.13664544       1.05760926      -1.14459443      -0.53769928       0.96596110
C       -2.05012741       1.65516313       9.77267023       46      -0.47453620       0.69520785      -0.54057444       0.62453175       1.48065007       1.00712311
C        3.08351632       3.00246313       0.64822751       47      -0.01605086       0.11556132       0.01380996       0.20967488       0.51372254       0.80871713
O       -0.35411232       2.78763684       4.26978769       48       0.22350736       0.25056293       0.25663339      -1.10039818       0.01685598       0.20638090
O        1.06167985      -0.11984225       6.16496940       49      -0.16821838      -0.55392455      -0.45958739       0.11151920       0.85498410       0.49101323
O       -1.21357943      -0.78977938       6.25156088       50      -0.33543391      -0.44277477      -0.25066842       0.73390627      -0.39541629       0.41342264
O        1.20697421       1.13024275       4.19342496       51       0.17004616       0.12777098       0.14454280       0.59316295      -1.04898572       0.70126629
O       -3.31489246       4.29054000       0.93958223       52      -0.41183557      -0.17658501       0.40053886      -0.10513990       0.93135130       2.17608881
O        4.33821577       0.06296653       9.62059751       53       0.35992286       0.45633107       0.21462760       0.43338183       0.52332342      -1.13898087
O       -4.17202258       0.83010248       9.41381797       54       0.02043448       0.24051386      -0.02777888      -0.78840899      -0.43915987       0.27765206
O        4.70668948       1.20000077       0.96656717       55       0.53785639      -0.22599715      -0.23686571      -0.20128016       0.02995167       1.29980588
56
Lattice="10.7619164 0.0 0.0 -9.665296305262016 4.732958053065482 0.0 -0.5483100463354086 -2.3664790220718444 10.484177494289693" Properties=species:S:1:pos:R:3:spacegroup_kinds:I:1:momenta:R:3:forces:R:3 spacegroup="P 1" unit_cell=conventional occupancy="_JSON {\"0\": {\"H\": 1}, \"1\": {\"H\": 1}, \"2\": {\"H\": 1}, \"3\": {\"H\": 1}, \"4\": {\"H\": 1}, \"5\": {\"H\": 1}, \"6\": {\"H\": 1}, \"7\": {\"H\": 1}, \"8\": {\"H\": 1}, \"9\": {\"H\": 1}, \"10\": {\"H\": 1}, \"11\": {\"H\": 1}, \"12\": {\"H\": 1}, \"13\": {\"H\": 1}, \"14\": {\"H\": 1}, \"15\": {\"H\": 1}, \"16\": {\"H\": 1}, \"17\": {\"H\": 1}, \"18\": {\"H\": 1}, \"19\": {\"H\": 1}, \"20\": {\"H\": 1}, \"21\": {\"H\": 1}, \"22\": {\"H\": 1}, \"23\": {\"H\": 1}, \"24\": {\"H\": 1}, \"25\": {\"H\": 1}, \"26\": {\"H\": 1}, \"27\": {\"H\": 1}, \"28\": {\"H\": 1}, \"29\": {\"H\": 1}, \"30\": {\"H\": 1}, \"31\": {\"H\": 1}, \"32\": {\"C\": 1}, \"33\": {\"C\": 1}, \"34\": {\"C\": 1}, \"35\": {\"C\": 1}, \"36\": {\"C\": 1}, \"37\": {\"C\": 1}, \"38\": {\"C\": 1}, \"39\": {\"C\": 1}, \"40\": {\"C\": 1}, \"41\": {\"C\": 1}, \"42\": {\"C\": 1}, \"43\": {\"C\": 1}, \"44\": {\"C\": 1}, \"45\": {\"C\": 1}, \"46\": {\"C\": 1}, \"47\": {\"C\": 1}, \"48\": {\"O\": 1}, \"49\": {\"O\": 1}, \"50\": {\"O\": 1}, \"51\": {\"O\": 1}, \"52\": {\"O\": 1}, \"53\": {\"O\": 1}, \"54\": {\"O\": 1}, \"55\": {\"O\": 1}}" energy=-313.853759765625 free_energy=-313.853759765625 stress="0.013761453330516815 -0.004879414103925228 -0.005674295127391815 -0.004879414103925228 0.006163910496979952 0.0054760645143687725 -0.005674295127391815 0.0054760645143687725 -0.001812858390621841" pbc="T T T"
H        0.15152020       2.21865804       1.86996614        0       0.18670802      -0.17536471       0.06887313      -0.25462857      -0.83074993       0.05804548
H        0.10920516      -0.19334266       8.62244504        1      -0.00897892       0.26460681      -0.03107080       0.20135918      -1.45993996      -1.01799297
H        7.15516440      -0.39883639       5.76710622        2       0.22383273       0.15937031      -0.34067697       0.18644556       0.19728220      -0.26340404
H        3.55287392       0.14212058       5.10648281        3      -0.16824447      -0.25377447       0.22539361      -0.53553522      -0.32390696      -0.69896692
H        5.71904797       0.28007966       3.48878616        4      -0.14175128       0.06957607       0.07981283      -0.42629343      -0.45673680       0.12704869
H        5.07217454       0.33732691       7.23278696        5      -0.02221058       0.07819991       0.03358514       0.14585078      -0.33882949      -0.34743419
H       -1.86337470       0.61454897       9.70908644        6       0.00209985      -0.06951328       0.02682881       0.35397485       0.27212012       0.03442086
H        2.40409163       2.23500137       0.27412510        7      -0.05904475      -0.08227790      -0.03197366       0.20294943       0.43273640      -0.32657486
H       -1.27779552       1.10993527       2.00836778        8      -0.09536156      -0.13044333       0.02708143      -0.83862424       0.04003453      -0.43664187
H       -8.33962575       3.21420929       8.35225618        9       0.17273539       0.29406286      -0.08361809       0.23365295       0.22766203      -0.09218781
H       -2.54133524       3.01261335       6.85842850       10       0.10491075       0.07367806       0.12018013      -0.11240866      -0.33224455       0.81576538
H       -6.39093374       3.84895161       3.60576975       11       0.14443695       0.00657614      -0.00789908      -0.26307514       0.31059793      -0.29987425
H       -3.37778177       0.94136156       3.24468012       12       0.01522257      -0.07500947       0.19342066      -1.33400726      -0.10755577      -0.76893413
H       -6.68609538       1.78694162       7.51153391       13      -0.08667819      -0.27258716      -0.01170138      -0.20096135      -0.13164692      -0.15521747
H       -1.76453238       2.05976721       8.70170600       14       0.02189839      -0.10309635       0.09738924      -0.31269547       0.19350281       0.31044140
H       -7.95446012       3.02340535       1.79564978       15      -0.04973547      -0.11226856       0.02076842       0.41189536       0.38057768      -1.18562233
H       -0.80018671       0.77039113       4.49092965       16       0.00831330      -0.06072629      -0.00660550       0.00097122       0.17438850      -0.99411523
H        1.44500778       2.50713066       6.17382265       17       0.01225009      -0.28997355      -0.01209802       0.24866310       1.14403713       0.13491438
H       -0.56090756       1.92546786       6.04306258       18       0.00912434       0.02953036      -0.02228986      -0.35387018      -0.16754848       0.13082854
H        0.67939895      -0.89355053       4.27079630       19       0.07644899      -0.05095192      -0.04691392       0.30057609      -0.10529478      -0.07734921
H        6.74714440       1.49845903       0.85340924       20      -0.11245946      -0.08927557      -0.22056984       0.51641154       1.18712270      -0.49471092
H       -5.80988209       2.10952447       9.71365889       21      -0.20491597       0.06817219      -0.10894763       0.02467389      -0.34780249      -0.22419587
H        5.87596092      -1.83571092       9.70363724       22      -0.16164990       0.07076674       0.03590495      -0.15178663      -0.88952601      -0.00086304
H       -5.50015881       3.11440213       1.13784153       23       0.11933012       0.03126264      -0.00442246      -0.11865020       0.35620737      -0.32354975
H        0.36855218       0.33657762       1.99417353       24      -0.04607071      -0.23447383      -0.15432086      -1.04204559       1.71019769       0.43702316
H       -0.32413891      -2.00709543       8.53026262       25       0.20339013      -0.17844328      -0.18322122       0.05246555       0.67888916      -0.27905196
H       -3.08714239       2.74677626       5.19721874       26      -0.01915460       0.07455449      -0.09249881       0.58998269       0.03474122       0.12558162
H       -6.69673468       3.25872606       5.21696366       27      -0.09696528      -0.06688859      -0.04755669       0.17544229      -1.07493258       0.50442177
H       -4.83143352       2.04721361       3.16449871       28       0.33766970       0.12941231       0.00704996       0.39477998      -1.34767675      -0.01897387
H       -4.93754030       1.99042852       7.37634379       29       0.05869102       0.23203845       0.01089275      -0.29873136      -0.47476077      -0.05642606
H       -0.81005381       4.51876364       0.00822841       30      -0.20155774       0.23295193      -0.03457201      -0.26692227      -0.02007107      -0.48483086
H        2.48120431       1.62674290      10.66760480       31       0.30393418      -0.01816207       0.05312327      -0.25146592      -0.60054111       0.38426059
C       -0.17497676       1.41202890       3.81608590       32       0.11041283      -0.26315953      -0.10980181       0.95673126       0.41550300       1.33581281
C        0.16861398      -1.18805864       6.60335742       33      -0.76776879       0.02199992       0.67403966      -0.22194110       0.09041016      -0.69300032
C       -0.81165543       2.89924228       5.59186424       34      -0.05282365       0.32732997      -0.63230716      -1.19237506      -0.34071356       0.60169721
C        1.38527143      -0.18167031       4.74198783       35       0.10269957       0.21879206      -0.68694661       0.81693828      -0.55123007      -0.59415805
C        6.06620574       0.86818201       1.37965229       36       0.53230898      -0.54626088       0.08532804      -0.00822388      -0.53997511       1.85034120
C       -5.59710015       1.15461053       9.17270551       37       0.05871184       1.06856393       0.55336524       0.70454514       0.84736645       1.79725301
C       -3.48648167       1.86752580      10.06803998       38       0.30032498       0.37939420      -0.58623066      -0.95998037       1.52577519      -0.53066087