56
Lattice="10.7619164 0.0 0.0 -9.665296305262016 4.732958053065482 0.0 -0.5483100463354086 -2.3664790220718444 10.484177494289693" Properties=species:S:1:pos:R:3:spacegroup_kinds:I:1:forces:R:3 spacegroup="P 1" unit_cell=conventional occupancy="_JSON {\"0\": {\"H\": 1}, \"1\": {\"H\": 1}, \"2\": {\"H\": 1}, \"3\": {\"H\": 1}, \"4\": {\"H\": 1}, \"5\": {\"H\": 1}, \"6\": {\"H\": 1}, \"7\": {\"H\": 1}, \"8\": {\"H\": 1}, \"9\": {\"H\": 1}, \"10\": {\"H\": 1}, \"11\": {\"H\": 1}, \"12\": {\"H\": 1}, \"13\": {\"H\": 1}, \"14\": {\"H\": 1}, \"15\": {\"H\": 1}, \"16\": {\"H\": 1}, \"17\": {\"H\": 1}, \"18\": {\"H\": 1}, \"19\": {\"H\": 1}, \"20\": {\"H\": 1}, \"21\": {\"H\": 1}, \"22\": {\"H\": 1}, \"23\": {\"H\": 1}, \"24\": {\"H\": 1}, \"25\": {\"H\": 1}, \"26\": {\"H\": 1}, \"27\": {\"H\": 1}, \"28\": {\"H\": 1}, \"29\": {\"H\": 1}, \"30\": {\"H\": 1}, \"31\": {\"H\": 1}, \"32\": {\"C\": 1}, \"33\": {\"C\": 1}, \"34\": {\"C\": 1}, \"35\": {\"C\": 1}, \"36\": {\"C\": 1}, \"37\": {\"C\": 1}, \"38\": {\"C\": 1}, \"39\": {\"C\": 1}, \"40\": {\"C\": 1}, \"41\": {\"C\": 1}, \"42\": {\"C\": 1}, \"43\": {\"C\": 1}, \"44\": {\"C\": 1}, \"45\": {\"C\": 1}, \"46\": {\"C\": 1}, \"47\": {\"C\": 1}, \"48\": {\"O\": 1}, \"49\": {\"O\": 1}, \"50\": {\"O\": 1}, \"51\": {\"O\": 1}, \"52\": {\"O\": 1}, \"53\": {\"O\": 1}, \"54\": {\"O\": 1}, \"55\": {\"O\": 1}}" energy=-315.20623779296875 free_energy=-315.20623779296875 stress="0.0015259803039953113 -0.0007349748048000038 -5.98815802277386e-07 -0.0007349748048000038 -0.0014768081018701196 6.289518950097772e-08 -5.98815802277386e-07 6.289518950097772e-08 0.0016979636857286096" pbc="T T T"
H       -0.01248427       2.27696696       1.83153339        0       0.07122697       0.02707789       0.05251680
H        0.46428407      -0.32702137       8.65264411        1      -0.05205588       0.05564412      -0.05251617
H        7.11696904      -0.62167877       5.76820574        2       0.06071801       0.02959736      -0.06332492
H        3.54843712       0.20514534       4.71597175        3      -0.04159901       0.05318641       0.06330323
H        5.94175252       0.08951207       3.41055536        4      -0.07122649      -0.02707701      -0.05251781
H        4.91667413       0.32702137       7.07362213        5       0.05205634      -0.05563832       0.05251948
H       -1.73601084       0.62167878       9.95806050        6      -0.06071934      -0.02958703       0.06332420
H        2.38083113       2.16133369       0.52611700        7       0.04159822      -0.05318587      -0.06330194
H       -1.38564785       1.18011340       2.11584331        8       0.00912152       0.09641425       0.00989620
H       -8.45014457       2.81694541       8.36833418        9       0.03391398       0.09078163      -0.00993983
H       -2.58250803       2.70418269       6.85836100       10       0.03144354       0.09145351       0.01228193
H       -6.70499477       3.65935988       3.62581649       11       0.01202252       0.09588327      -0.01239188
H       -3.44700030       1.18636563       3.12624543       12      -0.00912152      -0.09641433      -0.00989492
H       -6.59610993       1.91601265       7.35793206       13      -0.03391591      -0.09078118       0.00994133
H       -1.70183007       2.02877537       8.86790524       14      -0.03144007      -0.09144838      -0.01229347
H       -7.79294969       3.44007720       1.61627226       15      -0.01202465      -0.09588420       0.01238995
H       -0.77544238       0.72057867       4.36236141       16      -0.05580242      -0.06497552       0.06553179
H        1.56164860       2.67260202       6.12181608       17       0.02151164      -0.08285704      -0.06550502
H       -0.46393564       1.89516633       6.16016720       18       0.04679050      -0.08891334       0.03981810
H        0.70181139      -0.86845994       4.32401029       19      -0.08095931      -0.05914075      -0.03975136
H        6.70471062       1.64590036       0.87972733       20       0.05580533       0.06498127      -0.06553396
H       -5.84598670       2.06035604       9.60445016       21      -0.02151373       0.08285301       0.06550344
H        5.84489385      -1.89516633       9.56609904       22      -0.04679308       0.08891538      -0.03981610
H       -5.53445954       3.23493897       0.91807845       23       0.08095711       0.05914038       0.03974688
H        0.25131050       0.51347389       1.94957474       24      -0.00851066      -0.01871635      -0.03717769
H       -0.54820374      -1.79480395       8.53460275       25      -0.00033060      -0.02044802       0.03709361
H       -2.80766320       2.46899490       5.11315433       26      -0.04083798      -0.01125205       0.00405148
H       -6.60619587       3.34910738       5.37102316       27       0.03167424      -0.02802472      -0.00411341
H       -5.08395866       1.85300514       3.29251401       28       0.00851483       0.01871255       0.03717728
H       -4.83275446       1.79480396       7.19166349       29       0.00034714       0.02045727      -0.03709868
H       -0.92836486       4.63044218       0.12893441       30       0.04083304       0.01124321      -0.00406399
H        2.32185777       1.38385068      10.35524308       31      -0.03167594       0.02802818       0.00411068
C       -0.12835063       1.44534837       3.84841655       32      -0.01445578       0.09213161      -0.08206755
C        0.20260826      -1.12485611       6.63576095       33       0.05361657       0.07627164       0.08205840
C       -0.77226604       2.84130358       5.69336968       34      -0.06051213       0.10292982       0.03487857
C        1.39483372      -0.15433229       4.79080781       35       0.09947395       0.06571141      -0.03489130
C        6.05761888       0.92113066       1.39367220       36       0.01444731      -0.09213793       0.08206719
C       -5.58356646       1.12485611       9.09050530       37      -0.05360238      -0.07626285      -0.08206037
C       -3.51207206       1.89165448      10.03289656       38       0.06052634      -0.10293316      -0.03488919
C        4.53443453       2.52081132       0.45128094       39      -0.09947166      -0.06572062       0.03490315
C       -0.32593927       1.35886302       2.34265801       40      -0.02487621      -0.04884134       0.03836703
C        0.34202778      -1.28942579       8.14151949       41       0.00090573      -0.05509102      -0.03821065
C       -2.26824862       3.05565688       5.86632716       42       0.02524441      -0.06073736       0.01393132
C        2.83264719      -0.61974062       4.61785033       43      -0.04931913      -0.04330835      -0.01374376
C        6.25520752       1.00761601       2.89943074       44       0.02487160       0.04884291      -0.03836553
C       -5.72298598       1.28942580       7.58474676       45      -0.00092384       0.05507627       0.03821251
C       -2.01608948       1.67730118       9.85993908       46      -0.02525599       0.06073110      -0.01389953
C        3.09662106       2.98621965       0.62423841       47       0.04932707       0.04330540       0.01374389
O       -0.42625656       2.75924355       4.28180099       48       0.00567054      -0.06416602       0.01081763
O        1.04798334      -0.07585512       6.20237650       49      -0.03317410      -0.05508573      -0.01086383
O       -1.17294689      -0.80803189       6.28015861       50      -0.00324924      -0.06212831      -0.01994186
O        1.24638404       1.12493657       4.20401888       51      -0.02462047      -0.05716430       0.01989357
O       -3.30977150       4.34019353       0.96028775       52      -0.00567114       0.06416596      -0.01082095
O        4.33297486       0.07585512       9.52388974       53       0.03316876       0.05508588       0.01086721
O       -4.20801131       0.80803190       9.44610763       54       0.00324789       0.06213082       0.01994682
O        4.68288421       1.24154246       1.03806987       55       0.02462425       0.05716863      -0.01989732
