32
Lattice="6.17176593 0.0 0.0 0.0 8.01859859 0.0 0.0 0.0 13.03281824" Properties=species:S:1:pos:R:3:spacegroup_kinds:I:1:momenta:R:3:forces:R:3 spacegroup="P 1" unit_cell=conventional occupancy="_JSON {\"0\": {\"Li\": 1}, \"1\": {\"Li\": 1}, \"2\": {\"Li\": 1}, \"3\": {\"Li\": 1}, \"4\": {\"Li\": 1}, \"5\": {\"Li\": 1}, \"6\": {\"Li\": 1}, \"7\": {\"Li\": 1}, \"8\": {\"Li\": 1}, \"9\": {\"Li\": 1}, \"10\": {\"Li\": 1}, \"11\": {\"Li\": 1}, \"12\": {\"P\": 1}, \"13\": {\"P\": 1}, \"14\": {\"P\": 1}, \"15\": {\"P\": 1}, \"16\": {\"S\": 1}, \"17\": {\"S\": 1}, \"18\": {\"S\": 1}, \"19\": {\"S\": 1}, \"20\": {\"S\": 1}, \"21\": {\"S\": 1}, \"22\": {\"S\": 1}, \"23\": {\"S\": 1}, \"24\": {\"S\": 1}, \"25\": {\"S\": 1}, \"26\": {\"S\": 1}, \"27\": {\"S\": 1}, \"28\": {\"S\": 1}, \"29\": {\"S\": 1}, \"30\": {\"S\": 1}, \"31\": {\"S\": 1}}" energy=-139.0402374267578 free_energy=-139.0402374267578 stress="-0.0055259051732718945 -0.003707458497956395 0.00018465735774952918 -0.003707458497956395 -0.0095110097900033 0.0011612058151513338 0.00018465735774952918 0.0011612058151513338 -0.008576400578022003" pbc="T T T"
Li       2.31327516       0.17650228       4.28689216        0       0.69522646       0.29985973      -0.20661035      -0.05989780       0.03888448       0.09499839
Li       3.46227643       7.76444331       8.65107622        1       0.32052685      -0.58148852       0.10413542       0.08811517      -0.23249674       0.11325432
Li       5.52859663       7.66510306       1.79482561        2       0.23433951       0.53978091      -0.31062469       0.12668581       0.46076781       0.33272886
Li       0.66971631       0.61340733      10.70888483        3       0.13362932       0.62967139       0.41686751      -0.35778463      -0.39470786       0.04031635
Li       3.85164815       4.28804715       8.85340015        4       0.47013304      -0.40532122       0.61974566      -0.14483318      -0.24729553      -0.28845727
Li       2.87246457       3.70706539       4.30699204        5       0.37444357       0.40730599       0.32371742      -1.34454620      -0.43273383      -0.03110468
Li       0.79148143       4.19050087      10.83842346        6       0.20506378       0.06714957      -0.11322542      -0.06432102      -0.61735755       0.07689513
Li       5.75617830       4.29752938       2.27311758        7       0.02933462      -1.12079179       0.62272887       0.12211488      -0.18422002       0.09671851
Li       2.89937806      -0.46945404      -0.14311731        8      -0.07418723       0.21111847      -0.74231370      -0.37772483       0.16443045       0.29089081
Li      -0.62071291       0.61687636       6.19812179        9      -1.25589832       0.20943738       0.09057382       0.10247731       0.09291416       0.27399233
Li       3.68893006       3.57427822       0.22759818       10       0.31531052      -0.78577220       0.08723584      -0.05219654      -0.04668847      -0.19446661
Li       0.67033772       4.55855395       6.20918207       11       0.53929902       0.60517000      -0.31345274      -0.66613400      -0.70489323       0.47643399
P        1.15892888       2.03438841       1.12158728       12      -0.10471288      -0.66760788       0.69771587      -1.56366229      -0.05371512       0.92671013
P        5.18566044       6.14103375      11.97264739       13       1.10095827       0.13974548       0.09539110       0.16339910      -0.07386640      -0.71375108
P        4.08690615       5.99907512       5.44701080       14      -0.26619733       0.38602690       0.88223591      -0.19799669      -1.01567590      -1.36827874
P        1.95517724       1.95840617       7.74079662       15       1.15650353      -0.90852598      -0.21484230       0.50666302       0.58398634      -1.42258644
S        5.17563518       2.01599998       1.29239772       16      -1.00598633       0.22496513      -0.09429501       1.08827591       0.23655707       0.25077873
S        1.03675080       6.22957376      11.77681401       17       1.82261144       0.17503792      -0.09185857       0.29630905       0.32791954       0.06542378
S        2.05857330       5.95285919       5.26295600       18      -0.47230577      -0.00026562       0.27460568       0.10426632       0.33136153      -0.48928127
S        4.05922880       1.85322171       7.78634700       19      -0.14486594      -0.19494958       0.27173286      -0.83819956       0.39439723       0.40604758
S        1.69858369       1.97596660      12.24525985       20      -1.22636147       1.06282150      -0.70203229       0.71341699       0.55679375      -0.90139115
S        4.55505438       5.85638539       0.87086615       21       0.78194497      -0.71537530      -0.55009835      -0.37476137       0.23685925       0.14116508
S        4.68179950       6.01331101       7.34281696       22      -0.08609732       0.26295842      -0.02835124       0.58617079       0.30745751       0.81116116
S        1.35204658       1.96590365       5.67536431       23      -0.38559572       0.56214190       0.79710687       0.31388557       0.55925536       0.54495144
S        1.66726400       0.26135454       1.98187195       24      -0.41719383       0.34375082       1.71904582       0.39074916      -0.35658169       0.02789094
S        4.41938265       7.81376635      11.06656093       25      -0.65983430       0.96728549      -1.73752073       0.01127071      -0.00629559       0.10586289
S        4.65145222       7.56463499       4.28036544       26       0.26243296      -0.75340908       0.15333691       0.37297761       0.44086364       0.10237361
S        1.03034480       0.30692189       8.38569993       27      -1.39225728       0.91720109      -2.11195871       0.02179093      -0.47600248       0.47323462
S        4.49011899       4.41334005      11.11193213       28      -0.60346548      -0.62609657       0.72681881       0.07646850      -0.25326860      -0.19482525
S        2.03861537       3.65413403       2.03149512       29      -0.19953250      -0.23133392       0.55337899      -0.50397027      -0.02330846      -0.16106722
S        1.28914268       3.74376988       8.57349737       30      -0.29289790      -0.32465531      -0.69734360       0.44140786      -0.35899675      -0.41192764
S        4.90671054       4.24402327       4.57807539       31       0.14563178      -0.69583522      -0.52184577       1.01958346       0.74565601       0.52530813
