32
Lattice="6.17176593 0.0 0.0 0.0 8.01859859 0.0 0.0 0.0 13.03281824" Properties=species:S:1:pos:R:3:spacegroup_kinds:I:1:momenta:R:3:forces:R:3 spacegroup="P 1" unit_cell=conventional occupancy="_JSON {\"0\": {\"Li\": 1}, \"1\": {\"Li\": 1}, \"2\": {\"Li\": 1}, \"3\": {\"Li\": 1}, \"4\": {\"Li\": 1}, \"5\": {\"Li\": 1}, \"6\": {\"Li\": 1}, \"7\": {\"Li\": 1}, \"8\": {\"Li\": 1}, \"9\": {\"Li\": 1}, \"10\": {\"Li\": 1}, \"11\": {\"Li\": 1}, \"12\": {\"P\": 1}, \"13\": {\"P\": 1}, \"14\": {\"P\": 1}, \"15\": {\"P\": 1}, \"16\": {\"S\": 1}, \"17\": {\"S\": 1}, \"18\": {\"S\": 1}, \"19\": {\"S\": 1}, \"20\": {\"S\": 1}, \"21\": {\"S\": 1}, \"22\": {\"S\": 1}, \"23\": {\"S\": 1}, \"24\": {\"S\": 1}, \"25\": {\"S\": 1}, \"26\": {\"S\": 1}, \"27\": {\"S\": 1}, \"28\": {\"S\": 1}, \"29\": {\"S\": 1}, \"30\": {\"S\": 1}, \"31\": {\"S\": 1}}" energy=-140.31869506835938 free_energy=-140.31869506835938 stress="-0.0071706282906234264 -6.203823676997899e-09 9.125800670695128e-10 -6.203823676997899e-09 -0.008259406313300133 -6.420913134519424e-09 9.125800670695128e-10 -6.420913134519424e-09 -0.0052663167007267475" pbc="T T T"
Li       2.40329652       0.26860172       4.33400832        0       0.00000000       0.00000000       0.00000000      -0.02603539       0.00549058      -0.00432121
Li       3.76846941       7.74999687       8.69880992        1       0.00000000       0.00000000       0.00000000       0.02603610      -0.00549137       0.00432306
Li       5.48917948       7.74999687       2.18240080        2       0.00000000       0.00000000       0.00000000      -0.02603621      -0.00549043       0.00432338
Li       0.68258645       0.26860172      10.85041744        3       0.00000000       0.00000000       0.00000000       0.02603495       0.00549198      -0.00431966
Li       3.76846941       4.27790102       8.69880992        4       0.00000000       0.00000000       0.00000000       0.02603601       0.00549177       0.00432255
Li       2.40329652       3.74069757       4.33400832        5       0.00000000       0.00000000       0.00000000      -0.02603570      -0.00549108      -0.00432130
Li       0.68258645       3.74069757      10.85041744        6       0.00000000       0.00000000       0.00000000       0.02603641      -0.00549168      -0.00431968
Li       5.48917948       4.27790102       2.18240080        7       0.00000000       0.00000000       0.00000000      -0.02603551       0.00549066       0.00432285
Li       3.08588297       0.00000000       0.00000000        8       0.00000000       0.00000000       0.00000000      -0.00000124      -0.00000120      -0.00000128
Li       0.00000000       0.00000000       6.51640912        9       0.00000000       0.00000000       0.00000000       0.00000039      -0.00000064       0.00000019
Li       3.08588297       4.00929929       0.00000000       10       0.00000000       0.00000000       0.00000000      -0.00000057       0.00000123      -0.00000035
Li       0.00000000       4.00929929       6.51640912       11       0.00000000       0.00000000       0.00000000       0.00000073       0.00000273       0.00000116
P        0.94051010       2.00464965       1.16601784       12       0.00000000       0.00000000       0.00000000      -0.02067149      -0.00000096       0.02376110
P        5.23125583       6.01394894      11.86680040       13       0.00000000       0.00000000       0.00000000       0.02066688      -0.00000098      -0.02375966
P        4.02639307       6.01394894       5.35039128       14       0.00000000       0.00000000       0.00000000      -0.02066793       0.00000088      -0.02375664
P        2.14537286       2.00464965       7.68242696       15       0.00000000       0.00000000       0.00000000       0.02066872      -0.00000119       0.02375650
S        5.08970823       2.00464965       1.30575389       16       0.00000000       0.00000000       0.00000000      -0.25450563       0.00000203       0.01679083
S        1.08205770       6.01394894      11.72706435       17       0.00000000       0.00000000       0.00000000       0.25450769      -0.00000011      -0.01679153
S        2.00382526       6.01394894       5.21065523       18       0.00000000       0.00000000       0.00000000      -0.25450584       0.00000013      -0.01679185
S        4.16794067       2.00464965       7.82216301       19       0.00000000       0.00000000       0.00000000       0.25450113       0.00000030       0.01678930
S        1.68132889       2.00464965      12.25955363       20       0.00000000       0.00000000       0.00000000       0.10912271      -0.00000019      -0.16719645
S        4.49043704       6.01394894       0.77326461       21       0.00000000       0.00000000       0.00000000      -0.10912037       0.00000002       0.16718093
S        4.76721186       6.01394894       7.28967373       22       0.00000000       0.00000000       0.00000000       0.10912086       0.00000039       0.16717997
S        1.40455407       2.00464965       5.74314451       23       0.00000000       0.00000000       0.00000000      -0.10911965       0.00000028      -0.16718137
S        1.67233151       0.29287049       2.00524453       24       0.00000000       0.00000000       0.00000000       0.13957794      -0.21272656       0.08709857
S        4.49943442       7.72572810      11.02757371       25       0.00000000       0.00000000       0.00000000      -0.13957593       0.21272473      -0.08709254
S        4.75821447       7.72572810       4.51116459       26       0.00000000       0.00000000       0.00000000       0.13957472       0.21272393      -0.08709110
S        1.41355146       0.29287049       8.52165365       27       0.00000000       0.00000000       0.00000000      -0.13957593      -0.21272215       0.08709078
S        4.49943442       4.30216979      11.02757371       28       0.00000000       0.00000000       0.00000000      -0.13957737      -0.21272513      -0.08709434
S        1.67233151       3.71642880       2.00524453       29       0.00000000       0.00000000       0.00000000       0.13957867       0.21272625       0.08709907
S        1.41355146       3.71642880       8.52165365       30       0.00000000       0.00000000       0.00000000      -0.13957635       0.21272124       0.08709092
S        4.75821447       4.30216979       4.51116459       31       0.00000000       0.00000000       0.00000000       0.13957697      -0.21272546      -0.08709241
32
Lattice="6.17176593 0.0 0.0 0.0 8.01859859 0.0 0.0 0.0 13.03281824" Properties=species:S:1:pos:R:3:spacegroup_kinds:I:1:momenta:R:3:forces:R:3 spacegroup="P 1" unit_cell=conventional occupancy="_JSON {\"0\": {\"Li\": 1}, \"1\": {\"Li\": 1}, \"2\": {\"Li\": 1}, \"3\": {\"Li\": 1}, \"4\": {\"Li\": 1}, \"5\": {\"Li\": 1}, \"6\": {\"Li\": 1}, \"7\": {\"Li\": 1}, \"8\": {\"Li\": 1}, \"9\": {\"Li\": 1}, \"10\": {\"Li\": 1}, \"11\": {\"Li\": 1}, \"12\": {\"P\": 1}, \"13\": {\"P\": 1}, \"14\": {\"P\": 1}, \"15\": {\"P\": 1}, \"16\": {\"S\": 1}, \"17\": {\"S\": 1}, \"18\": {\"S\": 1}, \"19\": {\"S\": 1}, \"20\": {\"S\": 1}, \"21\": {\"S\": 1}, \"22\": {\"S\": 1}, \"23\": {\"S\": 1}, \"24\": {\"S\": 1}, \"25\": {\"S\": 1}, \"26\": {\"S\": 1}, \"27\": {\"S\": 1}, \"28\": {\"S\": 1}, \"29\": {\"S\": 1}, \"30\": {\"S\": 1}, \"31\": {\"S\": 1}}" energy=-139.90162658691406 free_energy=-139.90162658691406 stress="0.0004742842575069517 -0.0003404533490538597 -6.225089600775391e-05 -0.0003404533490538597 -0.004509359132498503 -0.001998949097469449 -6.225089600775391e-05 -0.001998949097469449 -0.001559206866659224" pbc="T T T"
Li       2.21305244       0.30294860       4.39662767        0      -0.42350523      -0.27019030       0.00350235       0.42212218      -0.54315180      -0.31328812
Li       3.90169244       7.71811216       8.66781808        1       0.08215558       0.02378799      -0.00453488      -0.27242938       0.14921468       0.23342755
Li       5.45429824       7.62701359       2.30026618        2       0.00990334      -0.06268599      -0.08268344       0.15482149       0.30460829      -0.20545918
Li       0.81282175       0.29547075      10.96151417        3      -0.07471785       0.59713108      -0.25543566      -0.08004975       0.00909999      -0.21187285
Li       3.73071680       4.33640460       8.64961977        4      -0.39223026      -0.11928851      -0.54015705      -0.04050629      -0.20275033       0.16291334
Li       2.32929364       3.73393463       4.23172682        5      -0.00818503       0.19444393      -0.35188785       0.11645894      -0.04225457       0.12914513
Li       0.67788974       3.85242918      10.85618093        6      -0.27032049      -0.18016892      -0.09491993       0.08000308      -0.21321264      -0.04626778
Li       5.72507067       4.31665283       2.16731765        7       0.16152757       0.74746444      -0.11942912      -0.39577013       0.05919067       0.09944041
Li       3.01768340      -0.20415187       0.02880996        8       0.05163664      -0.71373339      -0.16278946      -0.13187058       0.10987807       0.02253178
Li      -0.20076987       0.02343880       6.58800683        9      -0.38418540      -0.00956478       0.02504553       0.16157055       0.17035045      -0.01782161
Li       3.27707498       3.72724437       0.00973314       10       0.38003181      -0.24794891       0.55164262       0.31738603       0.14378858       0.03390035
Li      -0.03646655       4.11467382       6.51962338       11       0.06900620       0.20142201       0.16533038       0.19956915      -0.15054253       0.02490087
P        0.91671968       2.04854899       1.14654269       12       0.07477569       0.90692447      -0.27098896      -0.16729984      -0.71452028      -0.14700666
P        5.24584570       6.07161124      11.93060716       13       0.23085282       0.98161719       0.67633655      -0.14790991      -0.39219040      -0.31264043
P        3.96233735       5.99839663       5.35766738       14       0.05318763      -0.73850277       0.26005066       0.41290650      -0.26941293      -0.43752691
P        2.15821561       1.96908418       7.63159352       15       0.56393189      -1.09976478      -0.41939898      -0.77172399       0.01266648      -0.19968814
S        5.03066899       2.06097338       1.33401664       16      -0.27273576       0.24873724       0.39372094       0.62030810      -0.02335303      -0.03934310
S        1.12043616       6.02683414      11.75693698       17      -0.16978244      -0.08314834       0.61982887      -0.17444688       0.07528478       0.14293189
S        1.93749999       5.98382285       5.22293347       18      -0.26512005      -0.17100963       0.62776851       0.05442809      -0.07138191      -0.07001735
S        4.16625889       1.98131033       7.79171280       19       0.25432614      -0.03317611       0.02402514       0.40637094       0.08635339       0.00149200
S        1.78184178       2.05194835      12.26690319       20       0.39343645      -0.15173674       0.21294092      -0.45742744      -0.34212136      -0.17474371
S        4.48683413       6.00401776       0.86825681       21       0.26497465      -0.20170665      -0.68701361       0.12023321      -0.14538297      -0.52311915
S        4.71213435       5.98025828       7.31100231       22       0.00815222       0.09937952       0.36927006       0.12121315       0.13949333      -0.07336415
S        1.37099085       1.90387579       5.65026569       23      -1.39945154      -0.41988187       0.07680140      -0.10936052       0.74105465       0.89362264
S        1.65334988       0.34330091       2.05616879       24       0.03963165       0.46464250       0.78000098      -0.18873197      -0.05373034      -0.21728362
S        4.55658493       7.80199622      11.05756609       25       0.58451104       1.04033670       0.68769595      -0.04800456      -0.15005891       0.19698423
S        4.73099423       7.70806198       4.50704332       26      -0.43698833      -0.53531430      -0.33429468      -0.32337016       0.02922329       0.31799415
S        1.40658792       0.26400457       8.50135502       27       0.58723332      -0.31044681      -0.16075549       0.04556793       0.01599151       0.06994095
S        4.47405767       4.32622976      11.00711541       28      -0.29515974       0.41319057       0.20531914       0.27641463       0.58707356       0.32450566
S        1.77731922       3.70918291       1.89330791       29       0.56069158      -0.17394235      -1.20241999       0.19668616       0.68547404       0.52811801
S        1.40275853       3.72054079       8.47244580       30      -0.08287960      -0.00856783      -1.22563088       0.07141041      -0.27261469      -0.18006611
S        4.81588483       4.28754053       4.51861396       31       0.10529556      -0.38829871       0.23306000      -0.46856928       0.26793283      -0.01234048
32
Lattice="6.17176593 0.0 0.0 0.0 8.01859859 0.0 0.0 0.0 13.03281824" Properties=species:S:1:pos:R:3:spacegroup_kinds:I:1:momenta:R:3:forces:R:3 spacegroup="P 1" unit_cell=conventional occupancy="_JSON {\"0\": {\"Li\": 1}, \"1\": {\"Li\": 1}, \"2\": {\"Li\": 1}, \"3\": {\"Li\": 1}, \"4\": {\"Li\": 1}, \"5\": {\"Li\": 1}, \"6\": {\"Li\": 1}, \"7\": {\"Li\": 1}, \"8\": {\"Li\": 1}, \"9\": {\"Li\": 1}, \"10\": {\"Li\": 1}, \"11\": {\"Li\": 1}, \"12\": {\"P\": 1}, \"13\": {\"P\": 1}, \"14\": {\"P\": 1}, \"15\": {\"P\": 1}, \"16\": {\"S\": 1}, \"17\": {\"S\": 1}, \"18\": {\"S\": 1}, \"19\": {\"S\": 1}, \"20\": {\"S\": 1}, \"21\": {\"S\": 1}, \"22\": {\"S\": 1}, \"23\": {\"S\": 1}, \"24\": {\"S\": 1}, \"25\": {\"S\": 1}, \"26\": {\"S\": 1}, \"27\": {\"S\": 1}, \"28\": {\"S\": 1}, \"29\": {\"S\": 1}, \"30\": {\"S\": 1}, \"31\": {\"S\": 1}}" energy=-139.64154052734375 free_energy=-139.64154052734375 stress="-0.0010431369300931692 0.0009929267689585686 0.000666993553750217 0.0009929267689585686 -0.006953881122171879 -5.1216578867752105e-05 0.000666993553750217 -5.1216578867752105e-05 -0.006014812272042036" pbc="T T T"
Li       2.16377210       0.07065238       4.29599360        0       0.20447809       0.30329879      -0.45754576       0.15539703       0.09955458       0.30386215
Li       3.64984851       7.72957595       9.01849387        1      -0.97515347       0.12195344      -0.15299472       0.33857155      -0.08300666      -0.27508751
Li       5.34115328       7.88230013       2.16819713        2      -0.16921902      -0.03897769      -0.44512403       0.02744778      -0.33991522      -0.02142567
Li       0.56081345       0.56079505      10.60435476        3       0.03965568      -0.00486639      -0.67810366       0.32054782      -0.15048999       0.21230277
Li       3.72889723       4.17383445       8.70193495        4       0.60196330      -0.17132049       0.01415476       0.06439496       0.08952062       0.05859061
Li       2.33271779       3.67154464       4.25736243        5      -0.15764630      -0.98714745      -0.07361216       0.12238617       0.00260127      -0.04763773
Li       0.61805397       3.61514345      10.75974515        6      -0.00751339      -0.17955237       0.18551435       0.03838253       0.34066364       0.12086055
Li       5.80456072       4.57115405       2.25128494        7       0.45398602       0.04313939       0.13814930      -0.12211197      -0.07403176      -0.01565147
Li       2.85745186      -0.36462741      -0.14732627        8      -0.77852097       0.20376701      -0.31356339      -0.35333762       0.04714928       0.13533141
Li      -0.20198916       0.12345843       6.58318082        9       0.03590683       0.24737429      -0.14357502      -0.12789188      -0.08448009       0.14656243
Li       3.74927468       3.47185840       0.16876337       10       0.47914209       0.00361813      -0.04879182      -0.30030105       0.19660388      -0.07671720
Li      -0.06224249       4.01825090       6.56029856       11      -0.16088709      -0.35220705      -0.10334217      -0.03462518       0.02691807      -0.06820752
P        0.98804164       2.04473329       1.14774554       12       1.52289214       0.86279293      -0.57223243       0.16289756       0.21131837       0.31172270
P        5.21630137       6.11754477      11.86154503       13       0.05048477       0.27750118       1.79850526       0.65393907       0.10123733       0.23952512
P        4.00622207       5.98508506       5.39001781       14      -0.29381992       0.39747252       0.44044176      -0.55384082      -0.68184888       0.13522524
P        2.19231391       1.98028089       7.51278776       15       0.27545256       0.35690378       0.61835915       0.10894160      -0.29338336       0.93915546
S        5.13478859       2.06343932       1.45186262       16       1.02457441      -0.24740994       1.06748298       0.05505032       0.38827184      -0.08563004
S        1.07618239       5.95630556      11.83961746       17       0.54581851       0.01293610      -0.34415844      -0.22826886       0.07629666      -0.46413380
S        1.92778006       5.87971022       5.22153618       18       0.08171395      -1.79751336       0.06453557       0.49623013       0.04958640       0.05357877
S        4.25379411       2.00440231       7.78675392       19       0.38062420      -0.48345360      -0.42757100      -0.32636312      -0.20703997      -0.34048662
S        1.74919751       1.97211202      12.25939944       20      -0.33364177       0.14996886      -0.62146119      -0.08635888      -0.15814754      -0.30804950
S        4.47684783       5.98156754       0.74030145       21      -0.88495245      -0.62521133      -0.09612258      -0.18266663       0.21402614       0.63807750
S        4.65976548       5.93663017       7.39553169       22       0.01201194       0.18660400      -0.31575319       0.08557330       0.34927621      -0.42186761
S        1.23158605       1.93210716       5.70094568       23       0.47737171       0.59404818       0.00621700       0.38473874       0.04120843      -0.61535287
S        1.60333591       0.33974640       2.09886349       24      -0.68238499      -0.01563243      -0.05053221       0.18497510      -0.20692024      -0.50855350
S        4.59683365       7.96459954      11.16426520       25      -0.90785048       1.49203768       0.48035434      -0.29821590      -0.29959667      -0.01716021
S        4.68893284       7.65535050       4.49538344       26       0.33882424       0.43575410       0.31669953       0.04694557       0.63908178       0.09577435
S        1.50645406       0.28446085       8.47389632       27       0.17871027       1.24326731       0.22906449      -0.35422432      -0.12554553      -0.26098368
S        4.35506691       4.45110633      11.04558361       28      -1.61338458      -0.21247873      -1.34741244       0.15981704      -0.23373367      -0.53774107
S        1.85116380       3.78025125       1.84204458       29       0.19035535      -0.20814489       0.21328882      -0.02809807      -0.14361762       0.21165438
S        1.44510358       3.65729899       8.40674920       30       0.03032737      -1.35261733       0.34221475      -0.17737535       0.32741186       0.28521660
S        4.82860722       4.32591589       4.47515302       31       0.04068109      -0.25590473       0.27691413      -0.23255685      -0.11896929       0.17724586
32
Lattice="6.17176593 0.0 0.0 0.0 8.01859859 0.0 0.0 0.0 13.03281824" Properties=species:S:1:pos:R:3:spacegroup_kinds:I:1:momenta:R:3:forces:R:3 spacegroup="P 1" unit_cell=conventional occupancy="_JSON {\"0\": {\"Li\": 1}, \"1\": {\"Li\": 1}, \"2\": {\"Li\": 1}, \"3\": {\"Li\": 1}, \"4\": {\"Li\": 1}, \"5\": {\"Li\": 1}, \"6\": {\"Li\": 1}, \"7\": {\"Li\": 1}, \"8\": {\"Li\": 1}, \"9\": {\"Li\": 1}, \"10\": {\"Li\": 1}, \"11\": {\"Li\": 1}, \"12\": {\"P\": 1}, \"13\": {\"P\": 1}, \"14\": {\"P\": 1}, \"15\": {\"P\": 1}, \"16\": {\"S\": 1}, \"17\": {\"S\": 1}, \"18\": {\"S\": 1}, \"19\": {\"S\": 1}, \"20\": {\"S\": 1}, \"21\": {\"S\": 1}, \"22\": {\"S\": 1}, \"23\": {\"S\": 1}, \"24\": {\"S\": 1}, \"25\": {\"S\": 1}, \"26\": {\"S\": 1}, \"27\": {\"S\": 1}, \"28\": {\"S\": 1}, \"29\": {\"S\": 1}, \"30\": {\"S\": 1}, \"31\": {\"S\": 1}}" energy=-139.29591369628906 free_energy=-139.29591369628906 stress="-0.003664574818685651 -0.0006436826661229134 -0.0029831796418875456 -0.0006436826661229134 -0.010294572450220585 -0.0006429273635149002 -0.0029831796418875456 -0.0006429273635149002 -0.0022234164644032717" pbc="T T T"
Li       2.29006421       0.16028037       4.41485245        0      -0.13501239      -0.52389797      -0.01668550      -0.22888477      -0.23666176      -0.12835814
Li       3.92169423       7.69388711       8.94537933        1       0.84291638      -0.22924580       0.24012653      -0.33306441       0.05145879      -0.24351799
Li       5.41893800       7.77064434       2.02108834        2       0.33324246       0.51664058       0.58323860      -0.19216824       0.12548932       0.12051082
Li       0.65324299       0.45698706      10.81545615        3       0.16169624      -0.15632114       0.57384557      -0.02195387      -0.19514328      -0.28660825
Li       3.82352869       4.39396118       8.64427459        4      -0.14831622       0.32932336      -0.85772038      -0.27218196      -0.32678387       0.06693967
Li       2.66043290       3.55270614       4.15995878        5       1.05360851       0.77471305       0.21147725      -0.42186746      -0.04166900       0.17882478
Li       0.60231119       3.81662371      10.82312928        6      -0.20296499      -0.19881172       0.37582021       0.00391814      -0.25362703       0.17037779
Li       5.73274765       4.52317317       2.41931982        7      -0.56148449      -0.15168250       0.20832282       0.27532196      -0.07690275      -0.42703584
Li       2.27032271      -0.31684502      -0.17927972        8      -0.20667454      -0.27317348      -0.08143257       0.49462962      -0.33995467      -0.30641553
Li      -0.43961677       0.25308278       6.85781846        9      -0.72768649      -0.19333790       0.50990070       0.14434123      -0.20437568      -0.35659969
Li       3.71330313       3.64272429       0.20442355       10      -0.24020343       0.22751664       0.53386828      -0.06875808      -0.07711820      -0.22654563
Li      -0.08440136       3.87021029       6.50131685       11       0.04267779      -0.19139576       0.09037977       0.09494967       0.10645715       0.18358795
P        1.06373722       2.04676824       1.19576871       12       0.20311720      -0.06508495      -0.18138129       0.13597387       0.57805210      -0.86246705
P        5.12847995       6.17884897      11.92058377       13      -0.76081338      -0.04780443       0.55126726       0.85935390      -0.70028019       1.10409701
P        3.98277995       5.96318110       5.24718500       14       0.04022150      -0.45095692      -1.23213244      -0.24730180      -0.63130701       1.56577063
P        2.16977247       2.02356515       7.56709679       15      -1.44575382       0.58611806      -0.44136981      -0.26802170      -0.86135066       0.69921428
S        5.23231912       2.22798503       1.56392666       16       0.70745927       1.71330883      -0.32071890       0.07371481      -0.25400552      -0.19195676
S        0.98797432       5.91907047      11.73547431       17      -0.15958686       0.80195541       0.00677508       0.21822055       0.81585085       0.15268566
S        1.96914081       5.72079983       5.22198813       18      -0.34806400      -0.99507894       0.12757738       0.07739151       0.37027031      -0.32333618
S        4.25324044       1.93570137       7.68592649       19       0.09842928       0.08334207       0.15448560      -0.63796306       0.48768961       0.35308102
S        1.78866278       1.98274002      12.17061300       20       0.42759366       0.96550183      -0.03168198      -0.41246435       0.27885494       0.87873840
S        4.38672324       5.91076207       0.85595828       21      -0.04850683      -0.41219267      -0.09725760       0.26586980       0.52866268      -0.33589894
S        4.72028947       5.98791963       7.27366297       22      -0.35027217       0.93620006      -0.94369432       0.11102667       0.11981580      -0.50194204
S        1.40413509       1.97415098       5.63783046       23       0.65813045      -0.34450049      -0.12743738      -0.03547610       0.22773147       0.12081565
S        1.62494250       0.22882106       1.91594370       24       0.65496428      -0.75947775      -1.14598382       0.12693869      -0.10183296       0.80544662
S        4.52792984       7.93008998      11.23588585       25      -0.67323991      -0.87619636       1.14210307      -0.55342931       1.06658423      -0.17943433
S        4.59993032       7.73535965       4.57159990       26      -0.70652982      -0.28698903       0.35690352       0.48321158       0.53273016      -0.71631068
S        1.37988456       0.29227642       8.47248655       27      -0.92151596      -0.59902734       0.08172841       0.53232545       0.22067381      -0.14256370
S        4.40699730       4.58899297      10.96496632       28       1.84806442       1.10378708       0.48059418      -0.70199323      -1.13905835      -0.53466487
S        1.98127010       3.74377525       1.90983903       29       0.09561568      -1.66898759      -1.35279086      -0.33593553      -0.31347060      -0.00078922
S        1.35617318       3.62203794       8.57940197       30      -0.53158073       0.41036098       0.94852040       0.50906956       0.08941029      -0.65087605
S        4.81771848       4.23956250       4.49807054       31       1.00046898      -0.02460524      -0.34664775       0.32520679       0.15381034       0.01523071
32
Lattice="6.17176593 0.0 0.0 0.0 8.01859859 0.0 0.0 0.0 13.03281824" Properties=species:S:1:pos:R:3:spacegroup_kinds:I:1:momenta:R:3:forces:R:3 spacegroup="P 1" unit_cell=conventional occupancy="_JSON {\"0\": {\"Li\": 1}, \"1\": {\"Li\": 1}, \"2\": {\"Li\": 1}, \"3\": {\"Li\": 1}, \"4\": {\"Li\": 1}, \"5\": {\"Li\": 1}, \"6\": {\"Li\": 1}, \"7\": {\"Li\": 1}, \"8\": {\"Li\": 1}, \"9\": {\"Li\": 1}, \"10\": {\"Li\": 1}, \"11\": {\"Li\": 1}, \"12\": {\"P\": 1}, \"13\": {\"P\": 1}, \"14\": {\"P\": 1}, \"15\": {\"P\": 1}, \"16\": {\"S\": 1}, \"17\": {\"S\": 1}, \"18\": {\"S\": 1}, \"19\": {\"S\": 1}, \"20\": {\"S\": 1}, \"21\": {\"S\": 1}, \"22\": {\"S\": 1}, \"23\": {\"S\": 1}, \"24\": {\"S\": 1}, \"25\": {\"S\": 1}, \"26\": {\"S\": 1}, \"27\": {\"S\": 1}, \"28\": {\"S\": 1}, \"29\": {\"S\": 1}, \"30\": {\"S\": 1}, \"31\": {\"S\": 1}}" energy=-139.16567993164062 free_energy=-139.16567993164062 stress="-0.006862227339297533 0.0015340425306931138 -0.0019346571061760187 0.0015340425306931138 -0.0012063814792782068 0.003350313752889633 -0.0019346571061760187 0.003350313752889633 -0.004385211039334536" pbc="T T T"
Li       2.05073438      -0.00041414       4.17293664        0      -0.12918937       0.06889627       0.24027918       0.17940329       0.03041129       0.31255087
Li       3.76683575       7.61861204       8.85777023        1      -0.75639346       0.08975895      -0.43825112      -0.16686007       0.17092665       0.07783697
Li       5.38408664       7.91580214       2.24873883        2      -0.02859600      -0.11249944      -0.34310151       0.03338584      -0.20407470      -0.38429448
Li       0.51034994       0.20615481      10.86341775        3      -0.03803443       0.05408741      -0.03589222       0.25623810       0.46959496      -0.14100870
Li       3.63336236       4.16323235       8.40678512        4      -0.06406582       0.02791424       0.14759777       0.15105835       0.64346659       0.25070423
Li       2.39835259       3.51581814       4.31650388        5      -0.42818239      -0.76948410       0.16013881       0.40262434       0.42074722      -0.27911139
Li       0.63376607       3.63463847      11.18187531        6       0.13830816       0.21261187      -0.28398708      -0.33753902       0.71859324      -0.58152610
Li       6.01769928       4.50480492       2.06503023        7       0.12389625       0.39397215      -0.10045104      -0.63188899       0.05756594       0.24590355
Li       2.83266874      -0.56262709      -0.07671369        8       0.20336196       0.09969101       1.33670448      -0.28233433       0.13075352       0.01612321
Li      -0.41431885       0.36339904       6.60604133        9       0.60162852       0.58499198      -0.98417231      -0.09851767      -0.01632558      -0.18481809
Li       3.63094772       3.65093928       0.11826896       10       0.09368801       0.12692188      -0.27711135      -0.02800565      -0.07748927       0.06594149
Li       0.10824639       4.01240237       6.54438204       11       0.58578844       0.38667247      -0.21257567       0.05326338       0.18832728      -0.09761233
P        1.08943018       1.92783790       1.09997039       12      -0.56752065       0.34031382       1.40305162       0.01241166       1.66470134       0.39709526
P        5.20165833       6.08417437      11.99989303       13       0.29730921       0.18079394      -1.36382054      -0.69766706       0.41536838      -0.32556427
P        4.03591887       5.93217866       5.30679896       14       0.59124768      -0.02079746      -0.45554281       0.18421434       0.16721845      -0.68504888
P        2.04585421       1.94277451       7.63179597       15      -0.10069936       0.01480353       0.61091560      -1.02997804       1.06586432      -0.07362854
S        5.26763636       2.17446241       1.50504286       16       0.88970045      -2.46272175      -0.85762807      -0.01096212      -0.18138579      -0.28346696
S        1.08634176       6.17351752      11.79541991       17      -0.38231239       1.11255567      -0.18751311      -0.70764804      -0.65339816      -0.00666417
S        1.99814597       5.80370876       5.23709933       18       0.25056291       1.78911882       0.14711196       0.13869038      -0.00435596      -0.19642369