32
Lattice="6.17176593 0.0 0.0 0.0 8.01859859 0.0 0.0 0.0 13.03281824" Properties=species:S:1:pos:R:3:spacegroup_kinds:I:1:forces:R:3 spacegroup="P 1" unit_cell=conventional occupancy="_JSON {\"0\": {\"Li\": 1}, \"1\": {\"Li\": 1}, \"2\": {\"Li\": 1}, \"3\": {\"Li\": 1}, \"4\": {\"Li\": 1}, \"5\": {\"Li\": 1}, \"6\": {\"Li\": 1}, \"7\": {\"Li\": 1}, \"8\": {\"Li\": 1}, \"9\": {\"Li\": 1}, \"10\": {\"Li\": 1}, \"11\": {\"Li\": 1}, \"12\": {\"P\": 1}, \"13\": {\"P\": 1}, \"14\": {\"P\": 1}, \"15\": {\"P\": 1}, \"16\": {\"S\": 1}, \"17\": {\"S\": 1}, \"18\": {\"S\": 1}, \"19\": {\"S\": 1}, \"20\": {\"S\": 1}, \"21\": {\"S\": 1}, \"22\": {\"S\": 1}, \"23\": {\"S\": 1}, \"24\": {\"S\": 1}, \"25\": {\"S\": 1}, \"26\": {\"S\": 1}, \"27\": {\"S\": 1}, \"28\": {\"S\": 1}, \"29\": {\"S\": 1}, \"30\": {\"S\": 1}, \"31\": {\"S\": 1}}" energy=-140.31869506835938 free_energy=-140.31869506835938 stress="-0.0071706282906234264 -6.203823676997899e-09 9.125800670695128e-10 -6.203823676997899e-09 -0.008259406313300133 -6.420913134519424e-09 9.125800670695128e-10 -6.420913134519424e-09 -0.0052663167007267475" pbc="T T T"
Li       2.40329652       0.26860172       4.33400832        0      -0.02603539       0.00549058      -0.00432121
Li       3.76846941       7.74999687       8.69880992        1       0.02603610      -0.00549137       0.00432306
Li       5.48917948       7.74999687       2.18240080        2      -0.02603621      -0.00549043       0.00432338
Li       0.68258645       0.26860172      10.85041744        3       0.02603495       0.00549198      -0.00431966
Li       3.76846941       4.27790102       8.69880992        4       0.02603601       0.00549177       0.00432255
Li       2.40329652       3.74069757       4.33400832        5      -0.02603570      -0.00549108      -0.00432130
Li       0.68258645       3.74069757      10.85041744        6       0.02603641      -0.00549168      -0.00431968
Li       5.48917948       4.27790102       2.18240080        7      -0.02603551       0.00549066       0.00432285
Li       3.08588297       0.00000000       0.00000000        8      -0.00000124      -0.00000120      -0.00000128
Li       0.00000000       0.00000000       6.51640912        9       0.00000039      -0.00000064       0.00000019
Li       3.08588297       4.00929929       0.00000000       10      -0.00000057       0.00000123      -0.00000035
Li       0.00000000       4.00929929       6.51640912       11       0.00000073       0.00000273       0.00000116
P        0.94051010       2.00464965       1.16601784       12      -0.02067149      -0.00000096       0.02376110
P        5.23125583       6.01394894      11.86680040       13       0.02066688      -0.00000098      -0.02375966
P        4.02639307       6.01394894       5.35039128       14      -0.02066793       0.00000088      -0.02375664
P        2.14537286       2.00464965       7.68242696       15       0.02066872      -0.00000119       0.02375650
S        5.08970823       2.00464965       1.30575389       16      -0.25450563       0.00000203       0.01679083
S        1.08205770       6.01394894      11.72706435       17       0.25450769      -0.00000011      -0.01679153
S        2.00382526       6.01394894       5.21065523       18      -0.25450584       0.00000013      -0.01679185
S        4.16794067       2.00464965       7.82216301       19       0.25450113       0.00000030       0.01678930
S        1.68132889       2.00464965      12.25955363       20       0.10912271      -0.00000019      -0.16719645
S        4.49043704       6.01394894       0.77326461       21      -0.10912037       0.00000002       0.16718093
S        4.76721186       6.01394894       7.28967373       22       0.10912086       0.00000039       0.16717997
S        1.40455407       2.00464965       5.74314451       23      -0.10911965       0.00000028      -0.16718137
S        1.67233151       0.29287049       2.00524453       24       0.13957794      -0.21272656       0.08709857
S        4.49943442       7.72572810      11.02757371       25      -0.13957593       0.21272473      -0.08709254
S        4.75821447       7.72572810       4.51116459       26       0.13957472       0.21272393      -0.08709110
S        1.41355146       0.29287049       8.52165365       27      -0.13957593      -0.21272215       0.08709078
S        4.49943442       4.30216979      11.02757371       28      -0.13957737      -0.21272513      -0.08709434
S        1.67233151       3.71642880       2.00524453       29       0.13957867       0.21272625       0.08709907
S        1.41355146       3.71642880       8.52165365       30      -0.13957635       0.21272124       0.08709092
S        4.75821447       4.30216979       4.51116459       31       0.13957697      -0.21272546      -0.08709241
