4
Lattice="3.128588 0.0 0.0 -1.5642939988088433 2.709436998432005 0.0 0.0 0.0 5.016955" Properties=species:S:1:pos:R:3:spacegroup_kinds:I:1:momenta:R:3:forces:R:3 spacegroup="P 1" unit_cell=conventional occupancy="_JSON {\"0\": {\"Al\": 1}, \"1\": {\"Al\": 1}, \"2\": {\"N\": 1}, \"3\": {\"N\": 1}}" energy=-29.623743057250977 free_energy=-29.623743057250977 stress="0.004300342407077551 -0.008672629483044147 0.002881995402276516 -0.008672629483044147 -0.00694366917014122 -0.004434543661773205 0.002881995402276516 -0.004434543661773205 -0.01483922079205513" pbc="T T T"
Al       1.54321202       0.89379622       2.53645980        0      -0.00705478      -0.41529139       0.79445042      -0.25250050       0.39303011      -0.87834418
Al       0.03580901       1.79893951       4.98957807        1       0.09337956      -0.29525098      -0.61191922      -0.16601253       0.14058129       0.62745088
N        1.59619756       0.90645096       4.40111849        2      -0.02189846       1.09350635       0.27120879      -0.08899710      -0.09593859       0.34911251
N       -0.05911264       1.83464211       1.91219262        3      -0.06442630      -0.38296398      -0.45373993       0.50751007      -0.43767276      -0.09821934
