4
Lattice="3.128588 0.0 0.0 -1.5642939988088433 2.709436998432005 0.0 0.0 0.0 5.016955" Properties=species:S:1:pos:R:3:spacegroup_kinds:I:1:momenta:R:3:forces:R:3 spacegroup="P 1" unit_cell=conventional occupancy="_JSON {\"0\": {\"Al\": 1}, \"1\": {\"Al\": 1}, \"2\": {\"N\": 1}, \"3\": {\"N\": 1}}" energy=-29.673717498779297 free_energy=-29.673717498779297 stress="-0.002225531730800867 -1.4147761930871638e-06 5.868698860211907e-09 -1.4147761930871638e-06 -0.002227474469691515 -2.4068144810485137e-08 5.868698860211907e-09 -2.4068144810485137e-08 -0.005453682504594326" pbc="T T T"
Al       1.56429556       0.90314476       2.50490041        0       0.68448204       0.53670047       0.91071479      -0.00003627       0.00001807       0.00553248
Al      -0.00000156       1.80629224       5.01337791        1       0.31075784       0.39520501      -1.87833745       0.00003361      -0.00001777       0.00552452
N        1.56429556       0.90314476       4.41849749        2      -0.23293981      -0.79739853      -0.40745139      -0.00003536       0.00001806      -0.00553061
N       -0.00000156       1.80629224       1.91001999        3      -0.76230006      -0.13450696       1.37507406       0.00003799      -0.00001823      -0.00552598
4
Lattice="3.128588 0.0 0.0 -1.5642939988088433 2.709436998432005 0.0 0.0 0.0 5.016955" Properties=species:S:1:pos:R:3:spacegroup_kinds:I:1:momenta:R:3:forces:R:3 spacegroup="P 1" unit_cell=conventional occupancy="_JSON {\"0\": {\"Al\": 1}, \"1\": {\"Al\": 1}, \"2\": {\"N\": 1}, \"3\": {\"N\": 1}}" energy=-29.433595657348633 free_energy=-29.433595657348633 stress="-0.013773486949503422 -0.016446387395262718 0.012948748655617237 -0.016446387395262718 -0.023968610912561417 0.009969763457775116 0.012948748655617237 0.009969763457775116 -0.012059437111020088" pbc="T T T"
Al       1.60246141       0.92231283       2.54150848        0       0.57498199      -0.13492003       1.02882442      -1.31301379      -0.49033594      -0.87831509
Al       0.00328789       1.81111139       4.94718774        1      -0.44725792       0.00118037      -1.07867307      -0.30154154      -0.59423417       1.18011892
N        1.53678587       0.85870779       4.38099595        2       0.14052022      -0.46066709       0.20203871       0.28490835       0.67984694       1.25553691
N       -0.05228245       1.80432672       2.00436660        3      -0.26824430       0.59440676      -0.15219005       1.32964683       0.40472317      -1.55734062
4
Lattice="3.128588 0.0 0.0 -1.5642939988088433 2.709436998432005 0.0 0.0 0.0 5.016955" Properties=species:S:1:pos:R:3:spacegroup_kinds:I:1:momenta:R:3:forces:R:3 spacegroup="P 1" unit_cell=conventional occupancy="_JSON {\"0\": {\"Al\": 1}, \"1\": {\"Al\": 1}, \"2\": {\"N\": 1}, \"3\": {\"N\": 1}}" energy=-29.5672550201416 free_energy=-29.5672550201416 stress="0.012915817089378834 0.001702482346445322 0.0035793723072856665 0.001702482346445322 -0.025856873020529747 -0.005369185470044613 0.0035793723072856665 -0.005369185470044613 -0.011435315944254398" pbc="T T T"
Al       1.59598185       0.90138485       2.55101264        0      -0.85003981      -0.64755165      -0.41676302      -0.33522731       0.74370492      -1.26921177
Al      -0.01311799       1.79082858       4.96769658        1      -0.24557041      -0.74327781       1.65595806      -0.18280345      -0.17026728       1.21499527
N        1.52960408       0.86779352       4.41996341        2       0.16413084       0.60763582       0.63654558       0.31887776       0.39321339      -0.09056873
N       -0.00060094       1.87475191       1.90756521        3       0.93147936       0.78319364      -1.87574061       0.19915284      -0.96665096       0.14478560
4
Lattice="3.128588 0.0 0.0 -1.5642939988088433 2.709436998432005 0.0 0.0 0.0 5.016955" Properties=species:S:1:pos:R:3:spacegroup_kinds:I:1:momenta:R:3:forces:R:3 spacegroup="P 1" unit_cell=conventional occupancy="_JSON {\"0\": {\"Al\": 1}, \"1\": {\"Al\": 1}, \"2\": {\"N\": 1}, \"3\": {\"N\": 1}}" energy=-29.406274795532227 free_energy=-29.406274795532227 stress="0.010688787326216698 0.016498247161507607 -0.00816400721669197 0.016498247161507607 -0.009423445910215378 -0.015553955920040607 -0.00816400721669197 -0.015553955920040607 -0.06125413998961449" pbc="T T T"
Al       1.53423928       0.87298461       2.51007452        0      -1.60925386       0.09619231      -1.03262291       0.74608767       1.00298548       0.03482503
Al      -0.01349004       1.78470221       5.05709165        1       0.21561233      -0.04339783       1.72443301       0.02271273       0.40732872      -1.66436923
N        1.55208975       0.92225133       4.42203507        2       0.38659381       0.63935789      -0.93002929       0.04495779      -0.39009663      -0.56986058
N        0.09667398       1.88681817       1.81230439        3       1.00704769      -0.69215242       0.23821916      -0.81375837      -1.02021754       2.19940472
4
Lattice="3.128588 0.0 0.0 -1.5642939988088433 2.709436998432005 0.0 0.0 0.0 5.016955" Properties=species:S:1:pos:R:3:spacegroup_kinds:I:1:momenta:R:3:forces:R:3 spacegroup="P 1" unit_cell=conventional occupancy="_JSON {\"0\": {\"Al\": 1}, \"1\": {\"Al\": 1}, \"2\": {\"N\": 1}, \"3\": {\"N\": 1}}" energy=-29.201902389526367 free_energy=-29.201902389526367 stress="-0.02644103392958641 0.03815566375851631 -0.03138243407011032 0.03815566375851631 -0.004877524916082621 0.0015437211841344833 -0.03138243407011032 0.0015437211841344833 -0.05182009935379028" pbc="T T T"
Al       1.49382403       0.87740194       2.48150489        0      -0.08661621      -0.02748774       0.25595528       2.48428202      -0.46186864       1.22611535
Al      -0.02076737       1.79337852       5.08843295        1       0.00716734       0.60209075      -1.27068285       0.64723206       0.57433367      -2.36003995
N        1.60157221       0.96971683       4.33361321        2       0.49437255       0.53651007      -0.17473355      -0.53882378      -0.70145315       1.74608815
N        0.13924907       1.81421451       1.89535165        3      -0.41492372      -1.11111312       1.18946106      -2.59268999       0.58898807      -0.61216319
4
Lattice="3.128588 0.0 0.0 -1.5642939988088433 2.709436998432005 0.0 0.0 0.0 5.016955" Properties=species:S:1:pos:R:3:spacegroup_kinds:I:1:momenta:R:3:forces:R:3 spacegroup="P 1" unit_cell=conventional occupancy="_JSON {\"0\": {\"Al\": 1}, \"1\": {\"Al\": 1}, \"2\": {\"N\": 1}, \"3\": {\"N\": 1}}" energy=-29.57462501525879 free_energy=-29.57462501525879 stress="-0.023617934435606003 -0.014321352355182171 -0.011127950623631477 -0.014321352355182171 0.015030338428914547 -0.002854631980881095 -0.011127950623631477 -0.002854631980881095 -0.014440319500863552" pbc="T T T"
Al       1.53421963       0.88369271       2.53780582        0       1.55944054       0.36820864       1.55971022       0.29264194      -0.24000508      -0.91367853
Al      -0.00048008       1.82107764       4.98837341        1       1.01688554       0.86374298      -2.47525500       0.94369519       0.52251732       0.78486651
N        1.63583965       0.96584647       4.40663187        2      -0.31021897      -0.52489314       1.27117408      -1.15103710      -0.78907329       0.05687855
N       -0.01177522       1.75252280       1.90648729        3      -2.26610719      -0.70705851      -0.35562936      -0.08529993       0.50656092       0.07193324
4
Lattice="3.128588 0.0 0.0 -1.5642939988088433 2.709436998432005 0.0 0.0 0.0 5.016955" Properties=species:S:1:pos:R:3:spacegroup_kinds:I:1:momenta:R:3:forces:R:3 spacegroup="P 1" unit_cell=conventional occupancy="_JSON {\"0\": {\"Al\": 1}, \"1\": {\"Al\": 1}, \"2\": {\"N\": 1}, \"3\": {\"N\": 1}}" energy=-29.372072219848633 free_energy=-29.372072219848633 stress="-0.005629735067486763 -0.018719373270869255 0.01584949903190136 -0.018719373270869255 -0.03227287903428078 0.01721220090985298 0.01584949903190136 0.01721220090985298 -0.007298256270587444" pbc="T T T"
Al       1.57072835       0.88046442       2.56331976        0      -0.00039270      -0.37629531      -0.57844029      -1.34386516      -0.44065917      -1.50707674
Al       0.05055069       1.86456079       4.94968567        1       0.52727000       0.77034128       1.04960179      -0.49129176      -1.36433554       1.82584751
N        1.58204800       0.88176659       4.44992393        2      -0.27832236      -1.02263347      -0.55459334       0.15003866       1.16375971      -0.85894847
N       -0.12661084       1.75915456       1.88869867        3      -0.24855499       0.62858746       0.08343173       1.68511796       0.64123476       0.54017794
4
Lattice="3.128588 0.0 0.0 -1.5642939988088433 2.709436998432005 0.0 0.0 0.0 5.016955" Properties=species:S:1:pos:R:3:spacegroup_kinds:I:1:momenta:R:3:forces:R:3 spacegroup="P 1" unit_cell=conventional occupancy="_JSON {\"0\": {\"Al\": 1}, \"1\": {\"Al\": 1}, \"2\": {\"N\": 1}, \"3\": {\"N\": 1}}" energy=-29.596923828125 free_energy=-29.596923828125 stress="0.015976432710886 -0.0045059495605528355 0.006018669344484806 -0.0045059495605528355 -0.025499628856778145 -0.0045971255749464035 0.006018669344484806 -0.0045971255749464035 -0.01001385971903801" pbc="T T T"
Al       1.53284807       0.86390066       2.51395077        0      -1.59464510      -0.16469640      -1.74991373      -0.27820686       0.89915955      -0.15420499
Al       0.06317841       1.83227863       5.00948379        1       0.38440050      -1.80666658       1.59450021      -0.58708513      -0.41271731       0.16725081
N        1.58572475       0.89623788       4.41422574        2       0.14193117       1.12964999      -0.09119214       0.25704208       0.38076746       0.00228127
N       -0.08152103       1.83862421       1.90381446        3       1.06831337       0.84171298       0.24660558       0.60824978      -0.86720949      -0.01532696
4
Lattice="3.128588 0.0 0.0 -1.5642939988088433 2.709436998432005 0.0 0.0 0.0 5.016955" Properties=species:S:1:pos:R:3:spacegroup_kinds:I:1:momenta:R:3:forces:R:3 spacegroup="P 1" unit_cell=conventional occupancy="_JSON {\"0\": {\"Al\": 1}, \"1\": {\"Al\": 1}, \"2\": {\"N\": 1}, \"3\": {\"N\": 1}}" energy=-29.462553024291992 free_energy=-29.462553024291992 stress="-0.0056969597935676575 0.010849406942725182 -0.003906422760337591 0.010849406942725182 -0.01913384720683098 -0.012703318148851395 -0.003906422760337591 -0.012703318148851395 -0.01187101099640131" pbc="T T T"
Al       1.48347330       0.88264395       2.44527927        0      -0.30454471       1.01149499      -0.60004599       0.88393176       0.95768315       1.70776844
Al       0.06164409       1.77681257       5.07306073        1      -0.86715276      -0.75617389       0.43048959      -0.30080745       0.71655309      -1.72279990
N        1.61717706       0.94947188       4.40498424        2       0.38645867       0.04830090       0.18623339      -0.07233765      -0.67485988       0.48911181
N       -0.01486930       1.85626148       1.92266701        3       0.78523873      -0.30362198      -0.01667706      -0.51078671      -0.99937630      -0.47408050
4
Lattice="3.128588 0.0 0.0 -1.5642939988088433 2.709436998432005 0.0 0.0 0.0 5.016955" Properties=species:S:1:pos:R:3:spacegroup_kinds:I:1:momenta:R:3:forces:R:3 spacegroup="P 1" unit_cell=conventional occupancy="_JSON {\"0\": {\"Al\": 1}, \"1\": {\"Al\": 1}, \"2\": {\"N\": 1}, \"3\": {\"N\": 1}}" energy=-29.51875114440918 free_energy=-29.51875114440918 stress="-0.023370813578367233 0.006539691239595413 -0.016098203137516975 0.006539691239595413 0.0066974651999771595 -0.0004823919152840972 -0.016098203137516975 -0.0004823919152840972 -0.022161373868584633" pbc="T T T"
Al       1.50607640       0.94974319       2.46463692        0       1.15921352       0.62635228       1.50689913       1.24247348      -0.60704660       1.15697408
Al       0.01335469       1.75088039       5.06242875        1      -0.91112042       0.14825319      -0.88962676       0.51474744       0.69610572      -1.43088877
N        1.62637955       0.90489621       4.42127860        2      -0.14223526      -0.64065119       0.21498439      -0.71772027      -0.51824081      -0.07984954
N        0.02538010       1.82158365       1.88963024        3      -0.10585792      -0.13395424      -0.83225685      -1.03950071       0.42918217       0.35376394
4
Lattice="3.128588 0.0 0.0 -1.5642939988088433 2.709436998432005 0.0 0.0 0.0 5.016955" Properties=species:S:1:pos:R:3:spacegroup_kinds:I:1:momenta:R:3:forces:R:3 spacegroup="P 1" unit_cell=conventional occupancy="_JSON {\"0\": {\"Al\": 1}, \"1\": {\"Al\": 1}, \"2\": {\"N\": 1}, \"3\": {\"N\": 1}}" energy=-29.605012893676758 free_energy=-29.605012893676758 stress="0.0015961527824401855 -0.00678595993667841 -0.0030952859669923782 -0.00678595993667841 0.00178080378100276 0.0017244038172066212 -0.0030952859669923782 0.0017244038172066212 -0.023115022107958794" pbc="T T T"
Al       1.56693926       0.93861031       2.54470907        0       1.44875284      -0.98943809       1.48437437      -0.01659388      -0.29131609      -1.20300555
Al      -0.01304572       1.78057347       4.99752450        1       0.01689736       1.11024950      -1.70730033       0.38438195       0.02358035       0.50761169
N        1.58384201       0.87104966       4.42155576        2      -0.67927415      -0.02704929      -0.19037242      -0.39236414       0.15178096      -0.39793730
N        0.00122214       1.81989278       1.85992054        3      -0.78637611      -0.09376205       0.41329837       0.02457607       0.11595477       1.09333134
4
Lattice="3.128588 0.0 0.0 -1.5642939988088433 2.709436998432005 0.0 0.0 0.0 5.016955" Properties=species:S:1:pos:R:3:spacegroup_kinds:I:1:momenta:R:3:forces:R:3 spacegroup="P 1" unit_cell=conventional occupancy="_JSON {\"0\": {\"Al\": 1}, \"1\": {\"Al\": 1}, \"2\": {\"N\": 1}, \"3\": {\"N\": 1}}" energy=-29.470205307006836 free_energy=-29.470205307006836 stress="0.0032033526804298162 -0.01780145801603794 0.011838437058031559 -0.01780145801603794 -0.04134899750351906 0.007359960116446018 0.011838437058031559 0.007359960116446018 -0.005160233937203884" pbc="T T T"
Al       1.62755628       0.89950080       2.54516753        0       1.04970747      -0.99981864      -0.80202834      -1.41065216       0.15933245      -0.91779119
Al      -0.00757062       1.81703572       4.95606283        1      -0.03757976       0.11959805      -0.16512772      -0.26242736      -0.84351707       1.41445971
N        1.52756234       0.85151203       4.42065478        2      -0.42752176       0.29023101      -0.07965805       0.31765938       0.98894751      -0.00115334
N       -0.06966662       1.84442111       1.93994538        3      -0.58460600       0.58998965       1.04681414       1.35542011      -0.30476278      -0.49551567
4
Lattice="3.128588 0.0 0.0 -1.5642939988088433 2.709436998432005 0.0 0.0 0.0 5.016955" Properties=species:S:1:pos:R:3:spacegroup_kinds:I:1:momenta:R:3:forces:R:3 spacegroup="P 1" unit_cell=conventional occupancy="_JSON {\"0\": {\"Al\": 1}, \"1\": {\"Al\": 1}, \"2\": {\"N\": 1}, \"3\": {\"N\": 1}}" energy=-29.452987670898438 free_energy=-29.452987670898438 stress="-0.01322507206350565 -0.0237499438226223 0.007911481894552708 -0.0237499438226223 -0.047931693494319916 -0.007333292625844479 0.007911481894552708 -0.007333292625844479 0.02863294817507267" pbc="T T T"
Al       1.63184038       0.85684030       2.46693552        0      -0.97589062      -0.55899564      -1.34838370      -1.39009905       1.11026096       1.17303836
Al      -0.02377748       1.82170279       4.98999597        1      -0.28018776       0.45883513       1.28013501      -0.08532403       0.08283255       0.34697184
N        1.52792698       0.92957752       4.44479002        2       0.11446431       0.97873234       0.08012667       0.22036010      -0.17398657       0.05598713
N       -0.04718864       1.83921501       2.00086008        3       1.14161409      -0.87857180      -0.01187797       1.25506294      -1.01910651      -1.57599735
4
Lattice="3.128588 0.0 0.0 -1.5642939988088433 2.709436998432005 0.0 0.0 0.0 5.016955" Properties=species:S:1:pos:R:3:spacegroup_kinds:I:1:momenta:R:3:forces:R:3 spacegroup="P 1" unit_cell=conventional occupancy="_JSON {\"0\": {\"Al\": 1}, \"1\": {\"Al\": 1}, \"2\": {\"N\": 1}, \"3\": {\"N\": 1}}" energy=-29.536314010620117 free_energy=-29.536314010620117 stress="-0.019857674837112427 0.013829137198626995 -0.005717407912015915 0.013829137198626995 -0.003164038062095642 -0.0016710010822862387 -0.005717407912015915 -0.0016710010822862387 -0.006260802503675222" pbc="T T T"
Al       1.56291508       0.86348348       2.43836897        0      -1.44558748       0.38889127       0.34074915       0.67285961       0.11609294       1.45909584
Al      -0.01834143       1.83613134       5.05736567        1       0.19731481      -0.00921565       1.04742097       0.06595120       0.15003543      -1.19267452
N        1.54726694       0.95741150       4.47045646        2      -0.01023962       0.05685041       0.14844100       0.09761552      -0.44420874      -0.65174639
N        0.05576967       1.77068666       1.90062723        3       1.25851227      -0.43652601      -1.53661117      -0.83642626       0.17808056       0.38532522
4
Lattice="3.128588 0.0 0.0 -1.5642939988088433 2.709436998432005 0.0 0.0 0.0 5.016955" Properties=species:S:1:pos:R:3:spacegroup_kinds:I:1:momenta:R:3:forces:R:3 spacegroup="P 1" unit_cell=conventional occupancy="_JSON {\"0\": {\"Al\": 1}, \"1\": {\"Al\": 1}, \"2\": {\"N\": 1}, \"3\": {\"N\": 1}}" energy=-29.5310001373291 free_energy=-29.5310001373291 stress="-0.018293902277946472 0.015707477927207947 -0.011607700958848 0.015707477927207947 0.003148073563352227 0.004605654161423445 -0.011607700958848 0.004605654161423445 -0.017258955165743828" pbc="T T T"
Al       1.54701077       0.87273546       2.46070912        0       0.71855758      -0.11584321       0.49435299       1.07476747      -0.28505740       1.06925368
Al      -0.01761631       1.84389393       5.05391117        1       0.19346388       0.17720482      -0.69190136       0.23187646      -0.07941937      -1.16825068
N        1.56395352       0.94331121       4.45961403        2       0.32487468      -0.12409491      -0.51346251      -0.11547103      -0.20503262      -0.72920275
N        0.06831346       1.75176765       1.87546339        3      -1.23689619       0.06273330       0.71101088      -1.19117284       0.56950969       0.82819951
4
Lattice="3.128588 0.0 0.0 -1.5642939988088433 2.709436998432005 0.0 0.0 0.0 5.016955" Properties=species:S:1:pos:R:3:spacegroup_kinds:I:1:momenta:R:3:forces:R:3 spacegroup="P 1" unit_cell=conventional occupancy="_JSON {\"0\": {\"Al\": 1}, \"1\": {\"Al\": 1}, \"2\": {\"N\": 1}, \"3\": {\"N\": 1}}" energy=-29.61321258544922 free_energy=-29.61321258544922 stress="-0.008381799794733524 -0.004276744090020657 0.005492959637194872 -0.004276744090020657 -0.013936827890574932 0.0014804544625803828 0.005492959637194872 0.0014804544625803828 0.012475356459617615" pbc="T T T"
Al       1.57767911       0.87033379       2.48321561        0       0.42145831      -0.10086036       0.75449473      -0.50599581       0.14215261       0.64868462
Al       0.00878679       1.84488741       5.00616576        1       0.94842558       0.04829676      -0.67234687      -0.28190970      -0.37569866       0.05942471
N        1.54733737       0.91884309       4.41695257        2      -0.50233609      -0.06173837      -0.86681702       0.26756775       0.16352549       0.34766743
N       -0.02491947       1.77881441       1.96659674        3      -0.86754780       0.11430200       0.78466915       0.52033782       0.07002052      -1.05577636
4
Lattice="3.128588 0.0 0.0 -1.5642939988088433 2.709436998432005 0.0 0.0 0.0 5.016955" Properties=species:S:1:pos:R:3:spacegroup_kinds:I:1:momenta:R:3:forces:R:3 spacegroup="P 1" unit_cell=conventional occupancy="_JSON {\"0\": {\"Al\": 1}, \"1\": {\"Al\": 1}, \"2\": {\"N\": 1}, \"3\": {\"N\": 1}}" energy=-29.55784034729004 free_energy=-29.55784034729004 stress="-0.016363883391022682 -0.002947741188108921 0.012903755530714989 -0.002947741188108921 -0.006207771599292755 0.0015376615338027477 0.012903755530714989 0.0015376615338027477 -0.002714636269956827" pbc="T T T"
Al       1.59068811       0.88023428       2.52274589        0      -0.41625682       0.17887021       0.33160956      -0.90884435      -0.14031059      -0.36867875
Al       0.01872291       1.83477378       4.97781989        1       0.14974006      -0.20763046      -0.17578512      -0.72829664      -0.10046495       0.72652549
N        1.52039168       0.92489993       4.39464369        2       0.19754364       0.25939897       0.47781760       0.72475851      -0.09604880       0.71574116
N       -0.04216861       1.77342028       1.96745698        3       0.06897311      -0.23063869      -0.63364199       0.91238260       0.33682436      -1.07358754
4
Lattice="3.128588 0.0 0.0 -1.5642939988088433 2.709436998432005 0.0 0.0 0.0 5.016955" Properties=species:S:1:pos:R:3:spacegroup_kinds:I:1:momenta:R:3:forces:R:3 spacegroup="P 1" unit_cell=conventional occupancy="_JSON {\"0\": {\"Al\": 1}, \"1\": {\"Al\": 1}, \"2\": {\"N\": 1}, \"3\": {\"N\": 1}}" energy=-29.621110916137695 free_energy=-29.621110916137695 stress="-0.021500742062926292 0.005276471842080355 -0.0032674625981599092 0.005276471842080355 0.010657555423676968 0.0019249579636380076 -0.0032674625981599092 0.0019249579636380076 -0.0015899803256615996" pbc="T T T"
Al       1.54767646       0.89587761       2.50832863        0      -0.85809970       0.46896538      -1.00003133       0.39160424      -0.39029205      -0.15032770
Al       0.00665802       1.82067516       5.00342494        1      -0.72966931      -0.11082634       1.46536791      -0.00949812       0.22697017       0.34863070
N        1.57185929       0.94293296       4.45440721        2       0.62349879      -0.37686534       0.64593275      -0.01969899      -0.43335295      -0.83890057
N        0.01256036       1.75229422       1.88600526        3       0.96427021       0.01872633      -1.11126928      -0.36240709       0.59667510       0.64059776
4
Lattice="3.128588 0.0 0.0 -1.5642939988088433 2.709436998432005 0.0 0.0 0.0 5.016955" Properties=species:S:1:pos:R:3:spacegroup_kinds:I:1:momenta:R:3:forces:R:3 spacegroup="P 1" unit_cell=conventional occupancy="_JSON {\"0\": {\"Al\": 1}, \"1\": {\"Al\": 1}, \"2\": {\"N\": 1}, \"3\": {\"N\": 1}}" energy=-29.520856857299805 free_energy=-29.520856857299805 stress="-0.014047454111278057 0.011820928193628788 -0.014255513437092304 0.011820928193628788 -0.0056145573034882545 0.009361464530229568 -0.014255513437092304 0.009361464530229568 -0.01957111805677414" pbc="T T T"
Al       1.52999427       0.91403917       2.46474569        0       0.09545127      -0.23101201      -1.18071522       1.21875298      -0.63577098       0.99290091
Al      -0.00890654       1.82180734       5.05208966        1       0.31216889      -0.10747481       0.45537743       0.39472654      -0.38378337      -1.12710428
N        1.59437712       0.88605553       4.45928986        2      -0.04798991      -0.53350296      -0.20523334      -0.40810460       0.35578805      -0.79021686
N        0.05384446       1.77207217       1.87145001        3      -0.35963026       0.87198986       0.93057116      -1.20537496       0.66376638       0.92442030
4
Lattice="3.128588 0.0 0.0 -1.5642939988088433 2.709436998432005 0.0 0.0 0.0 5.016955" Properties=species:S:1:pos:R:3:spacegroup_kinds:I:1:momenta:R:3:forces:R:3 spacegroup="P 1" unit_cell=conventional occupancy="_JSON {\"0\": {\"Al\": 1}, \"1\": {\"Al\": 1}, \"2\": {\"N\": 1}, \"3\": {\"N\": 1}}" energy=-29.61878776550293 free_energy=-29.61878776550293 stress="0.01011787261813879 -0.0018218462355434895 -0.0018730402225628495 -0.0018218462355434895 -0.024783063679933548 0.004591113887727261 -0.0018730402225628495 0.004591113887727261 2.636339377204422e-05" pbc="T T T"
Al       1.53818032       0.90928018       2.47247625        0       0.23228552      -0.27447311       1.41733337       0.21200912       0.18702218       0.85530752
Al       0.01802691       1.81430743       5.03506517        1       0.60360856      -0.42930298      -1.11140786       0.03760140      -0.69444084      -0.55142534
N        1.59518015       0.85128050       4.42414644        2       0.09084595       0.02420709      -0.77345474      -0.19470248       0.84070539       0.01228140
N       -0.01452988       1.83034435       1.92467367        3      -0.92674003       0.67956901       0.46752929      -0.05490814      -0.33328658      -0.31616363
4
Lattice="3.128588 0.0 0.0 -1.5642939988088433 2.709436998432005 0.0 0.0 0.0 5.016955" Properties=species:S:1:pos:R:3:spacegroup_kinds:I:1:momenta:R:3:forces:R:3 spacegroup="P 1" unit_cell=conventional occupancy="_JSON {\"0\": {\"Al\": 1}, \"1\": {\"Al\": 1}, \"2\": {\"N\": 1}, \"3\": {\"N\": 1}}" energy=-29.623743057250977 free_energy=-29.623743057250977 stress="0.004300342407077551 -0.008672629483044147 0.002881995402276516 -0.008672629483044147 -0.00694366917014122 -0.004434543661773205 0.002881995402276516 -0.004434543661773205 -0.01483922079205513" pbc="T T T"
Al       1.54321202       0.89379622       2.53645980        0      -0.00705478      -0.41529139       0.79445042      -0.25250050       0.39303011      -0.87834418
Al       0.03580901       1.79893951       4.98957807        1       0.09337956      -0.29525098      -0.61191922      -0.16601253       0.14058129       0.62745088
N        1.59619756       0.90645096       4.40111849        2      -0.02189846       1.09350635       0.27120879      -0.08899710      -0.09593859       0.34911251
N       -0.05911264       1.83464211       1.91219262        3      -0.06442630      -0.38296398      -0.45373993       0.50751007      -0.43767276      -0.09821934
