4
Lattice="3.128588 0.0 0.0 -1.5642939988088433 2.709436998432005 0.0 0.0 0.0 5.016955" Properties=species:S:1:pos:R:3:spacegroup_kinds:I:1:forces:R:3 spacegroup="P 1" unit_cell=conventional occupancy="_JSON {\"0\": {\"Al\": 1}, \"1\": {\"Al\": 1}, \"2\": {\"N\": 1}, \"3\": {\"N\": 1}}" energy=-29.673717498779297 free_energy=-29.673717498779297 stress="-0.002225531730800867 -1.4147761930871638e-06 5.868698860211907e-09 -1.4147761930871638e-06 -0.002227474469691515 -2.4068144810485137e-08 5.868698860211907e-09 -2.4068144810485137e-08 -0.005453682504594326" pbc="T T T"
Al       1.56429556       0.90314476       2.50490041        0      -0.00003627       0.00001807       0.00553248
Al      -0.00000156       1.80629224       5.01337791        1       0.00003361      -0.00001777       0.00552452
N        1.56429556       0.90314476       4.41849749        2      -0.00003536       0.00001806      -0.00553061
N       -0.00000156       1.80629224       1.91001999        3       0.00003799      -0.00001823      -0.00552598
