4
Lattice="3.128588 0.0 0.0 -1.5642939988088433 2.709436998432005 0.0 0.0 0.0 5.016955" Properties=species:S:1:pos:R:3:spacegroup_kinds:I:1:momenta:R:3:forces:R:3 spacegroup="P 1" unit_cell=conventional occupancy="_JSON {\"0\": {\"Al\": 1}, \"1\": {\"Al\": 1}, \"2\": {\"N\": 1}, \"3\": {\"N\": 1}}" energy=-29.62374496459961 free_energy=-29.62374496459961 stress="0.004300396423786879 -0.008672583848237991 0.0028819155413657427 -0.008672583848237991 -0.006943786982446909 -0.004434576723724604 0.0028819155413657427 -0.004434576723724604 -0.014839389361441135" pbc="T T T"
Al       1.54321202       0.89379622       2.53645980        0      -0.00705468      -0.41529113       0.79445063      -0.25249860       0.39303094      -0.87834466
Al       0.03580901       1.79893952       4.98957809        1       0.09337934      -0.29525094      -0.61191921      -0.16601023       0.14058237       0.62745088
N        1.59619759       0.90645093       4.40111845        2      -0.02189795       1.09350609       0.27120799      -0.08899879      -0.09593846       0.34911156
N       -0.05911260       1.83464212       1.91219264        3      -0.06442666      -0.38296398      -0.45373948       0.50750774      -0.43767488      -0.09821771
