4
Lattice="3.128588 0.0 0.0 -1.5642939988088433 2.709436998432005 0.0 0.0 0.0 5.016955" Properties=species:S:1:pos:R:3:spacegroup_kinds:I:1:momenta:R:3:forces:R:3 spacegroup="P 1" unit_cell=conventional occupancy="_JSON {\"0\": {\"Al\": 1}, \"1\": {\"Al\": 1}, \"2\": {\"N\": 1}, \"3\": {\"N\": 1}}" energy=-29.673715591430664 free_energy=-29.673715591430664 stress="-0.0022251985501497984 -1.3459485899147694e-06 -3.0168813225373015e-08 -1.3459485899147694e-06 -0.002227241639047861 -1.4183465957273711e-08 -3.0168813225373015e-08 -1.4183465957273711e-08 -0.005453762132674456" pbc="T T T"
Al       1.56429556       0.90314476       2.50490041        0       0.68448204       0.53670047       0.91071479      -0.00003528       0.00002038       0.00553217
Al      -0.00000156       1.80629224       5.01337791        1       0.31075784       0.39520501      -1.87833745       0.00003393      -0.00001983       0.00552340
N        1.56429556       0.90314476       4.41849749        2      -0.23293981      -0.79739853      -0.40745139      -0.00003563       0.00002064      -0.00553020
N       -0.00000156       1.80629224       1.91001999        3      -0.76230006      -0.13450696       1.37507406       0.00003704      -0.00002115      -0.00552497
4
Lattice="3.128588 0.0 0.0 -1.5642939988088433 2.709436998432005 0.0 0.0 0.0 5.016955" Properties=species:S:1:pos:R:3:spacegroup_kinds:I:1:momenta:R:3:forces:R:3 spacegroup="P 1" unit_cell=conventional occupancy="_JSON {\"0\": {\"Al\": 1}, \"1\": {\"Al\": 1}, \"2\": {\"N\": 1}, \"3\": {\"N\": 1}}" energy=-29.43359375 free_energy=-29.43359375 stress="-0.013773391023278236 -0.01644638180732727 0.012948768213391304 -0.01644638180732727 -0.023968705907464027 0.009969722479581833 0.012948768213391304 0.009969722479581833 -0.012059459462761879" pbc="T T T"
Al       1.60246141       0.92231284       2.54150849        0       0.57498213      -0.13491976       1.02882472      -1.31301296      -0.49033374      -0.87831247
Al       0.00328788       1.81111140       4.94718774        1      -0.44725808       0.00118062      -1.07867320      -0.30154079      -0.59423167       1.18011796
N        1.53678588       0.85870779       4.38099594        2       0.14052040      -0.46066729       0.20203877       0.28490704       0.67984414       1.25553727
N       -0.05228245       1.80432670       2.00436659        3      -0.26824446       0.59440644      -0.15219034       1.32964671       0.40472126      -1.55734277
4
Lattice="3.128588 0.0 0.0 -1.5642939988088433 2.709436998432005 0.0 0.0 0.0 5.016955" Properties=species:S:1:pos:R:3:spacegroup_kinds:I:1:momenta:R:3:forces:R:3 spacegroup="P 1" unit_cell=conventional occupancy="_JSON {\"0\": {\"Al\": 1}, \"1\": {\"Al\": 1}, \"2\": {\"N\": 1}, \"3\": {\"N\": 1}}" energy=-29.567256927490234 free_energy=-29.567256927490234 stress="0.012915769591927528 0.001702590612694621 0.0035794307477772236 0.001702590612694621 -0.025857048109173775 -0.005369130522012711 0.0035794307477772236 -0.005369130522012711 -0.011435125023126602" pbc="T T T"
Al       1.59598185       0.90138487       2.55101265        0      -0.85003976      -0.64755163      -0.41676292      -0.33522639       0.74370301      -1.26921058
Al      -0.01311800       1.79082858       4.96769658        1      -0.24557022      -0.74327800       1.65595780      -0.18280435      -0.17026758       1.21499515
N        1.52960408       0.86779351       4.41996340        2       0.16413061       0.60763590       0.63654568       0.31887868       0.39321405      -0.09056827
N       -0.00060094       1.87475187       1.90756519        3       0.93147932       0.78319377      -1.87574059       0.19915192      -0.96664947       0.14478368
4
Lattice="3.128588 0.0 0.0 -1.5642939988088433 2.709436998432005 0.0 0.0 0.0 5.016955" Properties=species:S:1:pos:R:3:spacegroup_kinds:I:1:momenta:R:3:forces:R:3 spacegroup="P 1" unit_cell=conventional occupancy="_JSON {\"0\": {\"Al\": 1}, \"1\": {\"Al\": 1}, \"2\": {\"N\": 1}, \"3\": {\"N\": 1}}" energy=-29.406274795532227 free_energy=-29.406274795532227 stress="0.010688958689570427 0.016498154029250145 -0.008164030499756336 0.016498154029250145 -0.009423193521797657 -0.01555395033210516 -0.008164030499756336 -0.01555395033210516 -0.06125400587916374" pbc="T T T"
Al       1.53423929       0.87298462       2.51007452        0      -1.60925393       0.09619183      -1.03262353       0.74608833       1.00298643       0.03482382
Al      -0.01349003       1.78470221       5.05709165        1       0.21561242      -0.04339783       1.72443310       0.02271288       0.40732801      -1.66436899
N        1.55208973       0.92225133       4.42203506        2       0.38659375       0.63935798      -0.93002910       0.04495741      -0.39009574      -0.56986183
N        0.09667397       1.88681816       1.81230439        3       1.00704772      -0.69215196       0.23821955      -0.81375867      -1.02021885       2.19940686
4
Lattice="3.128588 0.0 0.0 -1.5642939988088433 2.709436998432005 0.0 0.0 0.0 5.016955" Properties=species:S:1:pos:R:3:spacegroup_kinds:I:1:momenta:R:3:forces:R:3 spacegroup="P 1" unit_cell=conventional occupancy="_JSON {\"0\": {\"Al\": 1}, \"1\": {\"Al\": 1}, \"2\": {\"N\": 1}, \"3\": {\"N\": 1}}" energy=-29.201906204223633 free_energy=-29.201906204223633 stress="-0.026440933346748352 0.038155388087034225 -0.031382642686367035 0.038155388087034225 -0.004877282306551933 0.0015437350375577807 -0.031382642686367035 0.0015437350375577807 -0.051819704473018646" pbc="T T T"
Al       1.49382402       0.87740192       2.48150486        0      -0.08661629      -0.02748835       0.25595536       2.48428130      -0.46186566       1.22611964
Al      -0.02076737       1.79337852       5.08843297        1       0.00716739       0.60209087      -1.27068262       0.64723206       0.57433468      -2.36004138
N        1.60157220       0.96971683       4.33361322        2       0.49437263       0.53651012      -0.17473347      -0.53882444      -0.70145345       1.74608874
N        0.13924907       1.81421454       1.89535165        3      -0.41492374      -1.11111266       1.18946080      -2.59268880       0.58898431      -0.61216712
4
Lattice="3.128588 0.0 0.0 -1.5642939988088433 2.709436998432005 0.0 0.0 0.0 5.016955" Properties=species:S:1:pos:R:3:spacegroup_kinds:I:1:momenta:R:3:forces:R:3 spacegroup="P 1" unit_cell=conventional occupancy="_JSON {\"0\": {\"Al\": 1}, \"1\": {\"Al\": 1}, \"2\": {\"N\": 1}, \"3\": {\"N\": 1}}" energy=-29.574628829956055 free_energy=-29.574628829956055 stress="-0.023618020117282867 -0.014321427792310715 -0.011128075420856476 -0.014321427792310715 0.015030098147690296 -0.0028545521199703217 -0.011128075420856476 -0.0028545521199703217 -0.01444036141037941" pbc="T T T"
Al       1.53421963       0.88369268       2.53780581        0       1.55944058       0.36820871       1.55971088       0.29264382      -0.24000561      -0.91367507
Al      -0.00048008       1.82107765       4.98837343        1       1.01688546       0.86374306      -2.47525500       0.94369590       0.52251381       0.78486115
N        1.63583965       0.96584647       4.40663185        2      -0.31021887      -0.52489305       1.27117334      -1.15103877      -0.78906834       0.05688059
N       -0.01177522       1.75252283       1.90648729        3      -2.26610714      -0.70705877      -0.35562920      -0.08530077       0.50656027       0.07193306
4
Lattice="3.128588 0.0 0.0 -1.5642939988088433 2.709436998432005 0.0 0.0 0.0 5.016955" Properties=species:S:1:pos:R:3:spacegroup_kinds:I:1:momenta:R:3:forces:R:3 spacegroup="P 1" unit_cell=conventional occupancy="_JSON {\"0\": {\"Al\": 1}, \"1\": {\"Al\": 1}, \"2\": {\"N\": 1}, \"3\": {\"N\": 1}}" energy=-29.3720703125 free_energy=-29.3720703125 stress="-0.005629505030810833 -0.018719594925642014 0.015849441289901733 -0.018719594925642014 -0.032272860407829285 0.017212262377142906 0.015849441289901733 0.017212262377142906 -0.00729812728241086" pbc="T T T"
Al       1.57072835       0.88046440       2.56331977        0      -0.00039269      -0.37629505      -0.57844016      -1.34386539      -0.44065797      -1.50707698
Al       0.05055070       1.86456081       4.94968568        1       0.52726994       0.77034115       1.04960117      -0.49128592      -1.36434078       1.82584739
N        1.58204799       0.88176659       4.44992389        2      -0.27832228      -1.02263340      -0.55459246       0.15003286       1.16376519      -0.85894835
N       -0.12661084       1.75915458       1.88869867        3      -0.24855495       0.62858727       0.08343145       1.68511868       0.64123350       0.54017782
4
Lattice="3.128588 0.0 0.0 -1.5642939988088433 2.709436998432005 0.0 0.0 0.0 5.016955" Properties=species:S:1:pos:R:3:spacegroup_kinds:I:1:momenta:R:3:forces:R:3 spacegroup="P 1" unit_cell=conventional occupancy="_JSON {\"0\": {\"Al\": 1}, \"1\": {\"Al\": 1}, \"2\": {\"N\": 1}, \"3\": {\"N\": 1}}" energy=-29.596923828125 free_energy=-29.596923828125 stress="0.015976347029209137 -0.004506038036197424 0.006018650718033314 -0.004506038036197424 -0.025499414652585983 -0.004597136750817299 0.006018650718033314 -0.004597136750817299 -0.010014102794229984" pbc="T T T"
Al       1.53284807       0.86390065       2.51395078        0      -1.59464517      -0.16469621      -1.74991377      -0.27820581       0.89915824      -0.15420528
Al       0.06317839       1.83227865       5.00948378        1       0.38439998      -1.80666641       1.59449988      -0.58708632      -0.41271538       0.16725053
N        1.58572479       0.89623787       4.41422578        2       0.14193175       1.12964971      -0.09119153       0.25704268       0.38076621       0.00228073
N       -0.08152103       1.83862421       1.90381444        3       1.06831346       0.84171291       0.24660547       0.60824931      -0.86720896      -0.01532594
4
Lattice="3.128588 0.0 0.0 -1.5642939988088433 2.709436998432005 0.0 0.0 0.0 5.016955" Properties=species:S:1:pos:R:3:spacegroup_kinds:I:1:momenta:R:3:forces:R:3 spacegroup="P 1" unit_cell=conventional occupancy="_JSON {\"0\": {\"Al\": 1}, \"1\": {\"Al\": 1}, \"2\": {\"N\": 1}, \"3\": {\"N\": 1}}" energy=-29.462553024291992 free_energy=-29.462553024291992 stress="-0.005697312764823437 0.010849472135305405 -0.003906603436917067 0.010849472135305405 -0.019133858382701874 -0.012703207321465015 -0.003906603436917067 -0.012703207321465015 -0.011871381662786007" pbc="T T T"
Al       1.48347330       0.88264396       2.44527929        0      -0.30454479       1.01149567      -0.60004580       0.88392913       0.95768511       1.70777118
Al       0.06164409       1.77681258       5.07306072        1      -0.86715222      -0.75617399       0.43048976      -0.30080587       0.71655458      -1.72279954
N        1.61717709       0.94947187       4.40498425        2       0.38645818       0.04830070       0.18623265      -0.07234064      -0.67486113       0.48910603
N       -0.01486929       1.85626145       1.92266702        3       0.78523882      -0.30362238      -0.01667661      -0.51078254      -0.99937844      -0.47407749
4
Lattice="3.128588 0.0 0.0 -1.5642939988088433 2.709436998432005 0.0 0.0 0.0 5.016955" Properties=species:S:1:pos:R:3:spacegroup_kinds:I:1:momenta:R:3:forces:R:3 spacegroup="P 1" unit_cell=conventional occupancy="_JSON {\"0\": {\"Al\": 1}, \"1\": {\"Al\": 1}, \"2\": {\"N\": 1}, \"3\": {\"N\": 1}}" energy=-29.518749237060547 free_energy=-29.518749237060547 stress="-0.023370997980237007 0.006539951078593731 -0.016098113730549812 0.006539951078593731 0.00669748755171895 -0.0004823197377845645 -0.016098113730549812 -0.0004823197377845645 -0.022161485627293587" pbc="T T T"
Al       1.50607640       0.94974321       2.46463694        0       1.15921343       0.62635177       1.50689902       1.24247360      -0.60704744       1.15697432
Al       0.01335471       1.75088039       5.06242875        1      -0.91111980       0.14825270      -0.88962619       0.51474202       0.69610506      -1.43088937
N        1.62637954       0.90489620       4.42127857        2      -0.14223553      -0.64065095       0.21498399      -0.71771467      -0.51824093      -0.07984824
N        0.02538010       1.82158364       1.88963027        3      -0.10585809      -0.13395353      -0.83225686      -1.03950107       0.42918295       0.35376304
4
Lattice="3.128588 0.0 0.0 -1.5642939988088433 2.709436998432005 0.0 0.0 0.0 5.016955" Properties=species:S:1:pos:R:3:spacegroup_kinds:I:1:momenta:R:3:forces:R:3 spacegroup="P 1" unit_cell=conventional occupancy="_JSON {\"0\": {\"Al\": 1}, \"1\": {\"Al\": 1}, \"2\": {\"N\": 1}, \"3\": {\"N\": 1}}" energy=-29.605005264282227 free_energy=-29.605005264282227 stress="0.0015955977141857147 -0.006785965524613857 -0.0030954540707170963 -0.006785965524613857 0.0017805497627705336 0.001724421395920217 -0.0030954540707170963 0.001724421395920217 -0.023113789036870003" pbc="T T T"
Al       1.56693926       0.93861030       2.54470909        0       1.44875322      -0.98943845       1.48437435      -0.01659598      -0.29131255      -1.20300865
Al      -0.01304569       1.78057345       4.99752451        1       0.01689771       1.11024945      -1.70730044       0.38438788       0.02358278       0.50760633
N        1.58384201       0.87104968       4.42155576        2      -0.67927408      -0.02704938      -0.19037155      -0.39237005       0.15177725      -0.39792600
N        0.00122211       1.81989283       1.85992052        3      -0.78637681      -0.09376165       0.41329758       0.02457799       0.11595263       1.09332824
4
Lattice="3.128588 0.0 0.0 -1.5642939988088433 2.709436998432005 0.0 0.0 0.0 5.016955" Properties=species:S:1:pos:R:3:spacegroup_kinds:I:1:momenta:R:3:forces:R:3 spacegroup="P 1" unit_cell=conventional occupancy="_JSON {\"0\": {\"Al\": 1}, \"1\": {\"Al\": 1}, \"2\": {\"N\": 1}, \"3\": {\"N\": 1}}" energy=-29.470205307006836 free_energy=-29.470205307006836 stress="0.0032031256705522537 -0.01780148223042488 0.011838355101644993 -0.01780148223042488 -0.04134916141629219 0.007359933108091354 0.011838355101644993 0.007359933108091354 -0.005160273052752018" pbc="T T T"
Al       1.62755628       0.89950078       2.54516753        0       1.04970734      -0.99981874      -0.80202902      -1.41065085       0.15933216      -0.91778690
Al      -0.00757058       1.81703570       4.95606283        1      -0.03757963       0.11959864      -0.16512801      -0.26242590      -0.84351569       1.41445649
N        1.52756235       0.85151203       4.42065482        2      -0.42752177       0.29023062      -0.07965791       0.31765759       0.98894608      -0.00115477
N       -0.06966667       1.84442117       1.93994537        3      -0.58460591       0.58998944       1.04681497       1.35541940      -0.30476236      -0.49551475
4
Lattice="3.128588 0.0 0.0 -1.5642939988088433 2.709436998432005 0.0 0.0 0.0 5.016955" Properties=species:S:1:pos:R:3:spacegroup_kinds:I:1:momenta:R:3:forces:R:3 spacegroup="P 1" unit_cell=conventional occupancy="_JSON {\"0\": {\"Al\": 1}, \"1\": {\"Al\": 1}, \"2\": {\"N\": 1}, \"3\": {\"N\": 1}}" energy=-29.452987670898438 free_energy=-29.452987670898438 stress="-0.01322541106492281 -0.023750031366944313 0.00791145209223032 -0.023750031366944313 -0.04793188348412514 -0.007333317771553993 0.00791145209223032 -0.007333317771553993 0.028633028268814087" pbc="T T T"
Al       1.63184038       0.85684030       2.46693549        0      -0.97589065      -0.55899521      -1.34838403      -1.39010036       1.11025834       1.17304015
Al      -0.02377744       1.82170279       4.98999597        1      -0.28018820       0.45883533       1.28013508      -0.08532409       0.08283506       0.34697226
N        1.52792700       0.92957750       4.44479005        2       0.11446463       0.97873249       0.08012642       0.22035976      -0.17398748       0.05599241
N       -0.04718869       1.83921500       2.00086013        3       1.14161421      -0.87857260      -0.01187742       1.25506449      -1.01910615      -1.57600486
4
Lattice="3.128588 0.0 0.0 -1.5642939988088433 2.709436998432005 0.0 0.0 0.0 5.016955" Properties=species:S:1:pos:R:3:spacegroup_kinds:I:1:momenta:R:3:forces:R:3 spacegroup="P 1" unit_cell=conventional occupancy="_JSON {\"0\": {\"Al\": 1}, \"1\": {\"Al\": 1}, \"2\": {\"N\": 1}, \"3\": {\"N\": 1}}" energy=-29.53631591796875 free_energy=-29.53631591796875 stress="-0.019857527688145638 0.013828946277499199 -0.005717383697628975 0.013828946277499199 -0.0031641938257962465 -0.0016710123745724559 -0.005717383697628975 -0.0016710123745724559 -0.006260556168854237" pbc="T T T"
Al       1.56291506       0.86348348       2.43836896        0      -1.44558819       0.38889026       0.34074953       0.67285663       0.11609500       1.45909524
Al      -0.01834140       1.83613135       5.05736566        1       0.19731512      -0.00921524       1.04742108       0.06595221       0.15003607      -1.19267297
N        1.54726696       0.95741148       4.47045649        2      -0.01024005       0.05685032       0.14844110       0.09761428      -0.44420928      -0.65174747
N        0.05576967       1.77068662       1.90062728        3       1.25851311      -0.43652536      -1.53661174      -0.83642304       0.17807847       0.38532525
4
Lattice="3.128588 0.0 0.0 -1.5642939988088433 2.709436998432005 0.0 0.0 0.0 5.016955" Properties=species:S:1:pos:R:3:spacegroup_kinds:I:1:momenta:R:3:forces:R:3 spacegroup="P 1" unit_cell=conventional occupancy="_JSON {\"0\": {\"Al\": 1}, \"1\": {\"Al\": 1}, \"2\": {\"N\": 1}, \"3\": {\"N\": 1}}" energy=-29.5310001373291 free_energy=-29.5310001373291 stress="-0.018294036388397217 0.0157074723392725 -0.011607768014073372 0.0157074723392725 0.003147754119709134 0.00460553914308548 -0.011607768014073372 0.00460553914308548 -0.017258595675230026" pbc="T T T"
Al       1.54701074       0.87273542       2.46070914        0       0.71855771      -0.11584412       0.49435359       1.07476771      -0.28505647       1.06925356
Al      -0.01761627       1.84389394       5.05391116        1       0.19346341       0.17720456      -0.69190085       0.23187385      -0.07941533      -1.16825056
N        1.56395353       0.94331122       4.45961406        2       0.32487497      -0.12409440      -0.51346303      -0.11546926      -0.20503555      -0.72920555
N        0.06831350       1.75176768       1.87546338        3      -1.23689615       0.06273398       0.71101027      -1.19117224       0.56950736       0.82820261
4
Lattice="3.128588 0.0 0.0 -1.5642939988088433 2.709436998432005 0.0 0.0 0.0 5.016955" Properties=species:S:1:pos:R:3:spacegroup_kinds:I:1:momenta:R:3:forces:R:3 spacegroup="P 1" unit_cell=conventional occupancy="_JSON {\"0\": {\"Al\": 1}, \"1\": {\"Al\": 1}, \"2\": {\"N\": 1}, \"3\": {\"N\": 1}}" energy=-29.61321258544922 free_energy=-29.61321258544922 stress="-0.008381841704249382 -0.00427668821066618 0.005492932163178921 -0.00427668821066618 -0.013936911709606647 0.001480486011132598 0.005492932163178921 0.001480486011132598 0.012475314550101757" pbc="T T T"
Al       1.57767910       0.87033375       2.48321563        0       0.42145887      -0.10085989       0.75449432      -0.50599474       0.14215195       0.64868456
Al       0.00878679       1.84488742       5.00616578        1       0.94842514       0.04829707      -0.67234627      -0.28190994      -0.37569776       0.05942430
N        1.54733740       0.91884311       4.41695256        2      -0.50233585      -0.06173850      -0.86681750       0.26756775       0.16352415       0.34766755
N       -0.02491945       1.77881442       1.96659671        3      -0.86754821       0.11430136       0.78466942       0.52033705       0.07002144      -1.05577612
4
Lattice="3.128588 0.0 0.0 -1.5642939988088433 2.709436998432005 0.0 0.0 0.0 5.016955" Properties=species:S:1:pos:R:3:spacegroup_kinds:I:1:momenta:R:3:forces:R:3 spacegroup="P 1" unit_cell=conventional occupancy="_JSON {\"0\": {\"Al\": 1}, \"1\": {\"Al\": 1}, \"2\": {\"N\": 1}, \"3\": {\"N\": 1}}" energy=-29.557836532592773 free_energy=-29.557836532592773 stress="-0.016363702714443207 -0.002947334898635745 0.012903719209134579 -0.002947334898635745 -0.006207504775375128 0.0015375599032267928 0.012903719209134579 0.0015375599032267928 -0.0027146474458277225" pbc="T T T"
Al       1.59068814       0.88023427       2.52274588        0      -0.41625615       0.17887061       0.33160843      -0.90884358      -0.14030592      -0.36868113
Al       0.01872291       1.83477380       4.97781993        1       0.14974040      -0.20763075      -0.17578531      -0.72829688      -0.10046303       0.72652727
N        1.52039170       0.92489995       4.39464368        2       0.19754297       0.25939919       0.47781823       0.72476006      -0.09605080       0.71574366
N       -0.04216864       1.77342023       1.96745701        3       0.06897276      -0.23063900      -0.63364135       0.91238052       0.33681956      -1.07359016
4
Lattice="3.128588 0.0 0.0 -1.5642939988088433 2.709436998432005 0.0 0.0 0.0 5.016955" Properties=species:S:1:pos:R:3:spacegroup_kinds:I:1:momenta:R:3:forces:R:3 spacegroup="P 1" unit_cell=conventional occupancy="_JSON {\"0\": {\"Al\": 1}, \"1\": {\"Al\": 1}, \"2\": {\"N\": 1}, \"3\": {\"N\": 1}}" energy=-29.62111473083496 free_energy=-29.62111473083496 stress="-0.021500861272215843 0.005276456009596586 -0.0032674167305231094 0.005276456009596586 0.010657583363354206 0.0019249257165938616 -0.0032674167305231094 0.0019249257165938616 -0.0015898485435172915" pbc="T T T"
Al       1.54767649       0.89587761       2.50832860        0      -0.85809978       0.46896527      -1.00003115       0.39160359      -0.39029130      -0.15032639
Al       0.00665803       1.82067517       5.00342493        1      -0.72966951      -0.11082646       1.46536728      -0.00949839       0.22696868       0.34863174
N        1.57185926       0.94293299       4.45440726        2       0.62349866      -0.37686530       0.64593301      -0.01969901      -0.43335196      -0.83890182
N        0.01256034       1.75229417       1.88600530        3       0.96427062       0.01872660      -1.11126917      -0.36240628       0.59667456       0.64059663
4
Lattice="3.128588 0.0 0.0 -1.5642939988088433 2.709436998432005 0.0 0.0 0.0 5.016955" Properties=species:S:1:pos:R:3:spacegroup_kinds:I:1:momenta:R:3:forces:R:3 spacegroup="P 1" unit_cell=conventional occupancy="_JSON {\"0\": {\"Al\": 1}, \"1\": {\"Al\": 1}, \"2\": {\"N\": 1}, \"3\": {\"N\": 1}}" energy=-29.520854949951172 free_energy=-29.520854949951172 stress="-0.014047320932149887 0.011820879764854908 -0.014255526475608349 0.011820879764854908 -0.0056148250587284565 0.009361562319099903 -0.014255526475608349 0.009361562319099903 -0.019570939242839813" pbc="T T T"
Al       1.52999429       0.91403915       2.46474570        0       0.09545122      -0.23101230      -1.18071466       1.21875107      -0.63577098       0.99289817
Al      -0.00890653       1.82180734       5.05208963        1       0.31216913      -0.10747511       0.45537750       0.39472413      -0.38378605      -1.12710261
N        1.59437708       0.88605556       4.45928994        2      -0.04799005      -0.53350292      -0.20523338      -0.40810186       0.35579154      -0.79021561
N        0.05384447       1.77207217       1.87145000        3      -0.35963029       0.87199043       0.93057052      -1.20537329       0.66376555       0.92441988
4
Lattice="3.128588 0.0 0.0 -1.5642939988088433 2.709436998432005 0.0 0.0 0.0 5.016955" Properties=species:S:1:pos:R:3:spacegroup_kinds:I:1:momenta:R:3:forces:R:3 spacegroup="P 1" unit_cell=conventional occupancy="_JSON {\"0\": {\"Al\": 1}, \"1\": {\"Al\": 1}, \"2\": {\"N\": 1}, \"3\": {\"N\": 1}}" energy=-29.618785858154297 free_energy=-29.618785858154297 stress="0.010117740370333195 -0.001821933314204216 -0.0018730286974459887 -0.001821933314204216 -0.024783041328191757 0.004591118544340134 -0.0018730286974459887 0.004591118544340134 2.6380212148069404e-05" pbc="T T T"
Al       1.53818034       0.90928017       2.47247626        0       0.23228513      -0.27447292       1.41733318       0.21200903       0.18702176       0.85530692
Al       0.01802692       1.81430743       5.03506515        1       0.60360835      -0.42930268      -1.11140720       0.03760229      -0.69444227      -0.55142474
N        1.59518012       0.85128049       4.42414649        2       0.09084632       0.02420653      -0.77345528      -0.19470316       0.84070641       0.01228137
N       -0.01452986       1.83034437       1.92467366        3      -0.92673976       0.67956909       0.46752932      -0.05490809      -0.33328605      -0.31616345
4
Lattice="3.128588 0.0 0.0 -1.5642939988088433 2.709436998432005 0.0 0.0 0.0 5.016955" Properties=species:S:1:pos:R:3:spacegroup_kinds:I:1:momenta:R:3:forces:R:3 spacegroup="P 1" unit_cell=conventional occupancy="_JSON {\"0\": {\"Al\": 1}, \"1\": {\"Al\": 1}, \"2\": {\"N\": 1}, \"3\": {\"N\": 1}}" energy=-29.62374496459961 free_energy=-29.62374496459961 stress="0.004300396423786879 -0.008672583848237991 0.0028819155413657427 -0.008672583848237991 -0.006943786982446909 -0.004434576723724604 0.0028819155413657427 -0.004434576723724604 -0.014839389361441135" pbc="T T T"
Al       1.54321202       0.89379622       2.53645980        0      -0.00705468      -0.41529113       0.79445063      -0.25249860       0.39303094      -0.87834466
Al       0.03580901       1.79893952       4.98957809        1       0.09337934      -0.29525094      -0.61191921      -0.16601023       0.14058237       0.62745088
N        1.59619759       0.90645093       4.40111845        2      -0.02189795       1.09350609       0.27120799      -0.08899879      -0.09593846       0.34911156
N       -0.05911260       1.83464212       1.91219264        3      -0.06442666      -0.38296398      -0.45373948       0.50750774      -0.43767488      -0.09821771
