4
Lattice="3.128588 0.0 0.0 -1.5642939988088433 2.709436998432005 0.0 0.0 0.0 5.016955" Properties=species:S:1:pos:R:3:spacegroup_kinds:I:1:forces:R:3 spacegroup="P 1" unit_cell=conventional occupancy="_JSON {\"0\": {\"Al\": 1}, \"1\": {\"Al\": 1}, \"2\": {\"N\": 1}, \"3\": {\"N\": 1}}" energy=-29.673715591430664 free_energy=-29.673715591430664 stress="-0.0022251985501497984 -1.3459485899147694e-06 -3.0168813225373015e-08 -1.3459485899147694e-06 -0.002227241639047861 -1.4183465957273711e-08 -3.0168813225373015e-08 -1.4183465957273711e-08 -0.005453762132674456" pbc="T T T"
Al       1.56429556       0.90314476       2.50490041        0      -0.00003528       0.00002038       0.00553217
Al      -0.00000156       1.80629224       5.01337791        1       0.00003393      -0.00001983       0.00552340
N        1.56429556       0.90314476       4.41849749        2      -0.00003563       0.00002064      -0.00553020
N       -0.00000156       1.80629224       1.91001999        3       0.00003704      -0.00002115      -0.00552497
