56
Lattice="10.7619164 0.0 0.0 -9.665296305262016 4.732958053065482 0.0 -0.5483100463354086 -2.3664790220718444 10.484177494289693" Properties=species:S:1:pos:R:3:spacegroup_kinds:I:1:forces:R:3 spacegroup="P 1" unit_cell=conventional occupancy="_JSON {\"0\": {\"H\": 1}, \"1\": {\"H\": 1}, \"2\": {\"H\": 1}, \"3\": {\"H\": 1}, \"4\": {\"H\": 1}, \"5\": {\"H\": 1}, \"6\": {\"H\": 1}, \"7\": {\"H\": 1}, \"8\": {\"H\": 1}, \"9\": {\"H\": 1}, \"10\": {\"H\": 1}, \"11\": {\"H\": 1}, \"12\": {\"H\": 1}, \"13\": {\"H\": 1}, \"14\": {\"H\": 1}, \"15\": {\"H\": 1}, \"16\": {\"H\": 1}, \"17\": {\"H\": 1}, \"18\": {\"H\": 1}, \"19\": {\"H\": 1}, \"20\": {\"H\": 1}, \"21\": {\"H\": 1}, \"22\": {\"H\": 1}, \"23\": {\"H\": 1}, \"24\": {\"H\": 1}, \"25\": {\"H\": 1}, \"26\": {\"H\": 1}, \"27\": {\"H\": 1}, \"28\": {\"H\": 1}, \"29\": {\"H\": 1}, \"30\": {\"H\": 1}, \"31\": {\"H\": 1}, \"32\": {\"C\": 1}, \"33\": {\"C\": 1}, \"34\": {\"C\": 1}, \"35\": {\"C\": 1}, \"36\": {\"C\": 1}, \"37\": {\"C\": 1}, \"38\": {\"C\": 1}, \"39\": {\"C\": 1}, \"40\": {\"C\": 1}, \"41\": {\"C\": 1}, \"42\": {\"C\": 1}, \"43\": {\"C\": 1}, \"44\": {\"C\": 1}, \"45\": {\"C\": 1}, \"46\": {\"C\": 1}, \"47\": {\"C\": 1}, \"48\": {\"O\": 1}, \"49\": {\"O\": 1}, \"50\": {\"O\": 1}, \"51\": {\"O\": 1}, \"52\": {\"O\": 1}, \"53\": {\"O\": 1}, \"54\": {\"O\": 1}, \"55\": {\"O\": 1}}" energy=-315.21038818359375 free_energy=-315.21038818359375 stress="0.0014446028508245945 -0.0005629304796457291 9.018511804015361e-08 -0.0005629304796457291 -0.0008546026074327528 -7.729355644414682e-08 9.018511804015361e-08 -7.729355644414682e-08 0.0015756041975691915" pbc="T T T"
H       -0.01146673       2.27735378       1.83228362        0       0.05954215      -0.00327715       0.06233793
H        0.46354042      -0.32622644       8.65189388        1      -0.05491754       0.02317594      -0.06235535
H        7.11783645      -0.62125595       5.76730111        2       0.06303652      -0.00415024      -0.05874535
H        3.54784285       0.20590515       4.71687608        3      -0.05845437       0.02398676       0.05874071
H        5.94073499       0.08912525       3.40980511        4      -0.05953917       0.00327704      -0.06233659
H        4.91741780       0.32622655       7.07437240        5       0.05491386      -0.02316889       0.06236547
H       -1.73687826       0.62125612       9.95896514        6      -0.06303773       0.00415891       0.05874474
H        2.38142539       2.16057390       0.52521271        7       0.05845519      -0.02398806      -0.05874353
H       -1.38551754       1.18149075       2.11598469        8      -0.01113705       0.08955126       0.00594868
H       -8.44966009       2.81824229       8.36819218        9       0.04931333       0.07553644      -0.00592614
H       -2.58205884       2.70548917       6.85853646       10       0.02489186       0.08117890       0.03102936
H       -6.70482302       3.66072964       3.62563947       11       0.01337859       0.08383659      -0.03101417
H       -3.44713062       1.18498829       3.12610407       12       0.01115897      -0.08955126      -0.00594439
H       -6.59659444       1.91471578       7.35807408       13      -0.04930711      -0.07554547       0.00593420
H       -1.70227922       2.02746896       8.86772963       14      -0.02490150      -0.08118902      -0.03099474
H       -7.79312147       3.43870742       1.61644925       15      -0.01337410      -0.08383945       0.03100640
H       -0.77623955       0.71965044       4.36329758       16      -0.01323412      -0.01213529       0.02308652
H        1.56195591       2.67141836       6.12088029       17       0.00653506      -0.01672775      -0.02309615
H       -0.46326720       1.89389614       6.16073603       18       0.01919662      -0.01968068       0.01018755
H        0.70065483      -0.86930480       4.32344242       19      -0.02583123      -0.00920830      -0.01018525
H        6.70550785       1.64682867       0.87879113       20       0.01323250       0.01213495      -0.02308438
H       -5.84629404       2.06153966       9.60538592       21      -0.00653640       0.01672589       0.02309488
H        5.84422538      -1.89389610       9.56553024       22      -0.01918973       0.01966907      -0.01017768
H       -5.53330302       3.23578383       0.91864627       23       0.02584121       0.00921570       0.01018928
H        0.25118892       0.51320652       1.94904364       24      -0.01400597      -0.01703859      -0.02868787
H       -0.54820846      -1.79509606       8.53513266       25       0.00518204      -0.02145625       0.02868141
H       -2.80824660       2.46883416       5.11321222       26      -0.03240802      -0.01272137       0.00990927
H       -6.60574340       3.34870703       5.37096439       27       0.02347690      -0.02566479      -0.00992751
H       -5.08383702       1.85327246       3.29304511       28       0.01400398       0.01703790       0.02868899
H       -4.83274950       1.79509621       7.19113351       29      -0.00520885       0.02144519      -0.02866559
H       -0.92778153       4.63060280       0.12887636       30       0.03240982       0.01272202      -0.00991064
H        2.32140526       1.38425108      10.35530180       31      -0.02347651       0.02567168       0.00991833
C       -0.12855715       1.44666453       3.84724415       32      -0.06474215      -0.02297722       0.02711254
C        0.20337419      -1.12376650       6.63693320       33       0.04808829      -0.04911543      -0.02705875
C       -0.77313051       2.84277400       5.69386795       34       0.01803356      -0.04222511       0.05795678
C        1.39625479      -0.15339359       4.79030934       35      -0.03474361      -0.02990967      -0.05791874
C        6.05782526       0.91981440       1.39484462       36       0.06475963       0.02297354      -0.02710661
C       -5.58433219       1.12376664       9.08933301       37      -0.04808981       0.04911354       0.02707836
C       -3.51120741       1.89018399      10.03239814       38      -0.01806915       0.04223110      -0.05796666
C        4.53301350       2.51987247       0.45177955       39       0.03474641       0.02992347       0.05790917
C       -0.32629463       1.35816530       2.34320612       40       0.01374695       0.00373760      -0.01267749
C        0.34204071      -1.29021281       8.14097361       41      -0.01071807       0.00946918       0.01263757
C       -2.26788799       3.05478921       5.86652617       42      -0.01084305       0.00948881      -0.01263925
C        2.83194262      -0.62035932       4.61765399       43       0.01386577       0.00375804       0.01261415
C        6.25556282       1.00831377       2.89888262       44      -0.01376662      -0.00373769       0.01266690
C       -5.72299918       1.29021259       7.58529266       45       0.01074442      -0.00945187      -0.01267728
C       -2.01645025       1.67816876       9.85974052       46       0.01086590      -0.00949179       0.01260887
C        3.09732573       2.98683830       0.62443476       47      -0.01388450      -0.00375909      -0.01259769
O       -0.42617556       2.75832689       4.28195553       48      -0.00160946      -0.01560043      -0.00606877
O        1.04750943      -0.07664206       6.20222129       49      -0.00535078      -0.01474534       0.00606446
O       -1.17299328      -0.80891944       6.27987373       50      -0.00940653      -0.01381373      -0.00193786
O        1.24603232       1.12411993       4.20430307       51       0.00225443      -0.01656502       0.00193496
O       -3.30985252       4.34111018       0.96013316       52       0.00160924       0.01560202       0.00605987
O        4.33344870       0.07664206       9.52404499       53       0.00534992       0.01474200      -0.00606599
O       -4.20796492       0.80891947       9.44639258       54       0.00941756       0.01382546       0.00193524
O        4.68323599       1.24235916       1.03778562       55      -0.00226711       0.01654617      -0.00193262
