12
Lattice="4.34051676 0.0 0.0 2.1841485215336385 3.75094401180867 0.0 0.0 0.0 7.06770668" Properties=species:S:1:pos:R:3:spacegroup_kinds:I:1:forces:R:3 spacegroup="P 1" unit_cell=conventional occupancy="_JSON {\"0\": {\"H\": 1}, \"1\": {\"H\": 1}, \"2\": {\"H\": 1}, \"3\": {\"H\": 1}, \"4\": {\"H\": 1}, \"5\": {\"H\": 1}, \"6\": {\"H\": 1}, \"7\": {\"H\": 1}, \"8\": {\"O\": 1}, \"9\": {\"O\": 1}, \"10\": {\"O\": 1}, \"11\": {\"O\": 1}}" energy=-59.512474060058594 free_energy=-59.512474060058594 stress="-0.0038686865009367466 0.00012171567504992709 -4.903001560307985e-09 0.00012171567504992709 -0.0040107970125973225 5.066398856001797e-08 -4.903001560307985e-09 5.066398856001797e-08 -0.0032162428833544254" pbc="T T T"
H        2.19203963       1.26017468       4.96035389        0      -0.03068146      -0.01763779       0.01983124
H        4.33262567       2.49076935       1.42650053        1       0.03067847       0.01763738       0.01983389
H        3.01133186       1.73117494       3.64791075        2       0.02111427       0.01213792      -0.02136950
H        3.51333350       2.01976909       0.11405739        3      -0.02111792      -0.01214033      -0.02136806
H        5.18241916       2.04841564       3.41543884        4       0.00825220      -0.03419588      -0.01552029
H        4.37797308       3.44772777       3.41543886        5      -0.02539767       0.02434660      -0.01551858
H        1.34224613       1.70252838       6.94929218        6      -0.00825691       0.03419648      -0.01551908
H        2.14669224       0.30321652       6.94929209        7       0.02539703      -0.02436288      -0.01551301
O        2.17743502       1.25177865       3.95111463        8       0.01807082       0.01038969       0.00933686
O        4.34723011       2.49916531       0.41726130        9      -0.01806200      -0.01038594       0.00933543
O        4.34814066       2.49968875       3.07089372       10      -0.00098019      -0.00057271       0.02323883
O        2.17652465       1.25125499       6.60474722       11       0.00098349       0.00058758       0.02323243
