13
Lattice="7.26870274 0.0 0.0 3.634351370000001 6.294881225397555 0.0 3.634351370000001 2.0982937417991856 5.934870934989993" Properties=species:S:1:pos:R:3:spacegroup_kinds:I:1:forces:R:3 spacegroup="P 1" unit_cell=conventional occupancy="_JSON {\"0\": {\"Li\": 1}, \"1\": {\"Li\": 1}, \"2\": {\"Li\": 1}, \"3\": {\"Li\": 1}, \"4\": {\"Li\": 1}, \"5\": {\"Li\": 1}, \"6\": {\"P\": 1}, \"7\": {\"S\": 1}, \"8\": {\"S\": 1}, \"9\": {\"S\": 1}, \"10\": {\"S\": 1}, \"11\": {\"S\": 1}, \"12\": {\"Cl\": 1}}" energy=-53.3634147644043 free_energy=-53.3634147644043 stress="-0.0007941971998661757 -2.3808577509498718e-07 -1.5869022718106862e-07 -2.3808577509498718e-07 -0.000793935323599726 -1.097346071787797e-07 -1.5869022718106862e-07 -1.097346071787797e-07 -0.0007939114584587514" pbc="T T T"
Li       9.25387995       7.24703237       3.10460814        0       0.00422581      -0.00243443       0.00344828
Li      12.55222827       5.34273008       5.79769826        1      -0.00421145       0.00243311      -0.00344164
Li       9.25387995       5.34273008       5.79769826        2       0.00422462       0.00243907      -0.00344671
Li      12.55222827       7.24703237       3.10460814        3      -0.00421218      -0.00243088       0.00344110
Li      10.90305411       4.39057894       3.10460814        4       0.00000246       0.00487661       0.00344896
Li      10.90305411       8.19918351       5.79769826        5       0.00000202      -0.00486434      -0.00344188
P        7.26870274       4.19658748       2.96743547        6       0.00008570       0.00004651       0.00003592
S        7.26870637       6.13578650       2.28182731        7      -0.00001782      -0.01090951       0.00384798
S        8.94810016       3.22699113       2.28182731        8      -0.00945817       0.00544079       0.00384698
S        5.58931258       3.22699113       2.28182731        9       0.00937808       0.00541288       0.00383023
S        7.26870637       4.19658958       5.02426588       10      -0.00001881      -0.00000949      -0.01157027
S       10.90305411       6.29488123       4.45115320       11      -0.00000193      -0.00000133       0.00000002
Cl       0.00000000       0.00000000       0.00000000       12       0.00000167       0.00000101       0.00000100
