4
Lattice="3.128588 0.0 0.0 -1.5642939988088433 2.709436998432005 0.0 0.0 0.0 5.016955" Properties=species:S:1:pos:R:3:spacegroup_kinds:I:1:forces:R:3 spacegroup="P 1" unit_cell=conventional occupancy="_JSON {\"0\": {\"Al\": 1}, \"1\": {\"Al\": 1}, \"2\": {\"N\": 1}, \"3\": {\"N\": 1}}" energy=-29.673715591430664 free_energy=-29.673715591430664 stress="-0.002225349424406886 -1.3062497146165697e-06 -8.623004532637424e-09 -1.3062497146165697e-06 -0.0022274653892964125 -2.846574176373906e-08 -8.623004532637424e-09 -2.846574176373906e-08 -0.005453608464449644" pbc="T T T"
Al       1.56429556       0.90314476       2.50490041        0      -0.00003424       0.00001992       0.00553216
Al      -0.00000156       1.80629224       5.01337791        1       0.00003371      -0.00002033       0.00552453
N        1.56429556       0.90314476       4.41849749        2      -0.00003557       0.00002094      -0.00553083
N       -0.00000156       1.80629224       1.91001999        3       0.00003605      -0.00002042      -0.00552569
