32
Lattice="6.17176593 0.0 0.0 0.0 8.01859859 0.0 0.0 0.0 13.03281824" Properties=species:S:1:pos:R:3:spacegroup_kinds:I:1:momenta:R:3:forces:R:3 spacegroup="P 1" unit_cell=conventional occupancy="_JSON {\"0\": {\"Li\": 1}, \"1\": {\"Li\": 1}, \"2\": {\"Li\": 1}, \"3\": {\"Li\": 1}, \"4\": {\"Li\": 1}, \"5\": {\"Li\": 1}, \"6\": {\"Li\": 1}, \"7\": {\"Li\": 1}, \"8\": {\"Li\": 1}, \"9\": {\"Li\": 1}, \"10\": {\"Li\": 1}, \"11\": {\"Li\": 1}, \"12\": {\"P\": 1}, \"13\": {\"P\": 1}, \"14\": {\"P\": 1}, \"15\": {\"P\": 1}, \"16\": {\"S\": 1}, \"17\": {\"S\": 1}, \"18\": {\"S\": 1}, \"19\": {\"S\": 1}, \"20\": {\"S\": 1}, \"21\": {\"S\": 1}, \"22\": {\"S\": 1}, \"23\": {\"S\": 1}, \"24\": {\"S\": 1}, \"25\": {\"S\": 1}, \"26\": {\"S\": 1}, \"27\": {\"S\": 1}, \"28\": {\"S\": 1}, \"29\": {\"S\": 1}, \"30\": {\"S\": 1}, \"31\": {\"S\": 1}}" energy=-140.17588806152344 free_energy=-140.17588806152344 stress="0.0009694060427136719 -0.0010100026847794652 -0.0004179322859272361 -0.0010100026847794652 0.000602380488999188 -0.0005917001399211586 -0.0004179322859272361 -0.0005917001399211586 -0.0026321932673454285" pbc="T T T"
Li       2.24201025       0.21612568       4.34267451        0      -0.29770878      -0.05044838       0.01870529       0.15415242       0.12065867       0.04994371
Li       3.75388078       7.72602577       8.78112266        1       0.02872271       0.00555857      -0.32350725      -0.04807931      -0.00504966      -0.22585690
Li       5.45274635       7.70301125       2.16373321        2       0.26704706       0.13077976      -0.24199868       0.07254787       0.14156732       0.01926784
Li       0.67466651       0.15241760      10.83130402        3      -0.04039454      -0.19792765       0.05511502       0.08217920       0.18913345       0.00519544
Li       3.83438072       4.24035158       8.61084037        4       0.28953470      -0.11369790      -0.27763385      -0.13958521       0.06134189       0.13582721
Li       2.27517952       3.79248455       4.35314482        5      -0.40804329       0.31823764       0.01224949       0.20746225      -0.02235429      -0.05022354
Li       0.74456881       3.65493982      10.83382020        6      -0.03966387      -0.18954688      -0.20225428      -0.09321579       0.12182607       0.02883471
Li       5.51938513       4.24324354       2.26333073        7       0.08685661      -0.36972995      -0.06946780      -0.11628896       0.11605659      -0.10466445
Li       3.07204272      -0.06639285       0.00122923        8      -0.23013641      -0.02717313       0.11684468      -0.05675922       0.02852960       0.02179225
Li      -0.04333894      -0.01405301       6.59905146        9      -0.33177868      -0.15194852       0.19433206      -0.00391547       0.06012620      -0.10121878
Li       3.10807551       4.03054554      -0.00010297       10      -0.05335836       0.01751122      -0.03151040      -0.01863331      -0.04272830       0.00184494
Li      -0.02656705       4.00397973       6.55732125       11      -0.25743659      -0.03841146       0.05904117      -0.04525398       0.00382662      -0.10015843
P        0.95767714       2.02019577       1.16064492       12      -0.13835905       0.18184242       0.16636060       0.28512412      -0.30123466       0.27154285
P        5.23289739       5.97776623      11.83927705       13       0.80835531       0.46697032       0.37140957      -0.00526600       0.19927034       0.03675239
P        4.01006526       6.07930412       5.34674418       14      -0.32044910       0.80654951       0.53213608       0.06665079      -0.54872346      -0.13926519
P        2.16788255       2.02014922       7.67558912       15       0.40304074       0.46335232       0.37947076      -0.22972220      -0.25205624       0.37267423
S        5.10978060       2.03343733       1.30499124       16      -0.26380919      -0.20187945       0.27301697      -0.16189650      -0.11123300      -0.01186790
S        1.10309734       5.97957212      11.73142524       17      -0.30959958      -0.45671934       0.15813835      -0.08010416      -0.06660540      -0.02994207
S        1.95010567       6.01914632       5.23403313       18      -0.32529359       0.43778675       0.49299420       0.36030138       0.10746208       0.03245350
S        4.21115377       1.98745859       7.83278283       19       0.33200970       0.06198188      -0.35863129      -0.20206639      -0.00629939       0.01539778
S        1.71487362       1.97514519      12.23783863       20       0.41354657      -0.97173595      -0.09122593       0.03024791      -0.08344842       0.27935421
S        4.48784941       6.01336928       0.76930127       21       0.41178062       0.13437321       0.01233671      -0.00281704      -0.14999077      -0.19048662
S        4.77335395       6.02748309       7.30075393       22      -0.34166216      -0.38339510      -0.53617938      -0.07358508       0.09167287      -0.08247782
S        1.40310860       2.04048477       5.75643133       23      -0.05241096       0.16363219      -0.50184014      -0.08697036      -0.12707615      -0.17250204
S        1.67361766       0.24807478       2.05175140       24      -0.31459720      -0.04424698       0.53648693      -0.13979241       0.55114412      -0.47175774
S        4.48530377       7.72446735      10.99178537       25      -0.20548748      -0.25943376      -0.14941885       0.12527707      -0.22926468       0.35245198
S        4.77148108       7.78529226       4.50349704       26       0.35499321       0.10425156      -0.03697601      -0.23767443      -0.07756865       0.10942540
S        1.40036323       0.26675662       8.51496106       27       0.41708069       0.22320495      -0.46380315       0.22448280       0.32807514      -0.08800384
S        4.50381972       4.26539728      10.98886093       28       0.26909277      -0.76229048      -1.05387487       0.00299277      -0.00952267       0.02755716
S        1.68144379       3.77359645       2.00471181       29      -0.12146377       0.30155452      -0.33508069       0.08092205      -0.33124310      -0.18973850
S        1.36956101       3.73084377       8.52335894       30      -0.18431746       0.21085954       0.38358367       0.34462619      -0.11787615      -0.02074585
S        4.76523877       4.30913380       4.52003916       31       0.15390941       0.19013857       0.91118106      -0.29534081       0.36158401       0.21859416
