32
Lattice="6.17176593 0.0 0.0 0.0 8.01859859 0.0 0.0 0.0 13.03281824" Properties=species:S:1:pos:R:3:spacegroup_kinds:I:1:momenta:R:3:forces:R:3 spacegroup="P 1" unit_cell=conventional occupancy="_JSON {\"0\": {\"Li\": 1}, \"1\": {\"Li\": 1}, \"2\": {\"Li\": 1}, \"3\": {\"Li\": 1}, \"4\": {\"Li\": 1}, \"5\": {\"Li\": 1}, \"6\": {\"Li\": 1}, \"7\": {\"Li\": 1}, \"8\": {\"Li\": 1}, \"9\": {\"Li\": 1}, \"10\": {\"Li\": 1}, \"11\": {\"Li\": 1}, \"12\": {\"P\": 1}, \"13\": {\"P\": 1}, \"14\": {\"P\": 1}, \"15\": {\"P\": 1}, \"16\": {\"S\": 1}, \"17\": {\"S\": 1}, \"18\": {\"S\": 1}, \"19\": {\"S\": 1}, \"20\": {\"S\": 1}, \"21\": {\"S\": 1}, \"22\": {\"S\": 1}, \"23\": {\"S\": 1}, \"24\": {\"S\": 1}, \"25\": {\"S\": 1}, \"26\": {\"S\": 1}, \"27\": {\"S\": 1}, \"28\": {\"S\": 1}, \"29\": {\"S\": 1}, \"30\": {\"S\": 1}, \"31\": {\"S\": 1}}" energy=-140.31869506835938 free_energy=-140.31869506835938 stress="-0.007170630618929863 -9.994553629155689e-09 1.1349492456957933e-09 -9.994553629155689e-09 -0.008259404450654984 8.728825662274176e-09 1.1349492456957933e-09 8.728825662274176e-09 -0.005266313906759024" pbc="T T T"
Li       2.40329652       0.26860172       4.33400832        0       0.00000000       0.00000000       0.00000000      -0.02603558       0.00549067      -0.00432152
Li       3.76846941       7.74999687       8.69880992        1       0.00000000       0.00000000       0.00000000       0.02603723      -0.00549140       0.00432367
Li       5.48917948       7.74999687       2.18240080        2       0.00000000       0.00000000       0.00000000      -0.02603619      -0.00549057       0.00432304
Li       0.68258645       0.26860172      10.85041744        3       0.00000000       0.00000000       0.00000000       0.02603494       0.00549228      -0.00431932
Li       3.76846941       4.27790102       8.69880992        4       0.00000000       0.00000000       0.00000000       0.02603640       0.00549116       0.00432236
Li       2.40329652       3.74069757       4.33400832        5       0.00000000       0.00000000       0.00000000      -0.02603565      -0.00549150      -0.00432093
Li       0.68258645       3.74069757      10.85041744        6       0.00000000       0.00000000       0.00000000       0.02603644      -0.00549239      -0.00432012
Li       5.48917948       4.27790102       2.18240080        7       0.00000000       0.00000000       0.00000000      -0.02603598       0.00549076       0.00432246
Li       3.08588297       0.00000000       0.00000000        8       0.00000000       0.00000000       0.00000000      -0.00000019      -0.00000123      -0.00000005
Li       0.00000000       0.00000000       6.51640912        9       0.00000000       0.00000000       0.00000000       0.00000049      -0.00000170       0.00000031
Li       3.08588297       4.00929929       0.00000000       10       0.00000000       0.00000000       0.00000000      -0.00000047       0.00000248      -0.00000042
Li       0.00000000       4.00929929       6.51640912       11       0.00000000       0.00000000       0.00000000       0.00000051      -0.00000023      -0.00000126
P        0.94051010       2.00464965       1.16601784       12       0.00000000       0.00000000       0.00000000      -0.02067232      -0.00000172       0.02375998
P        5.23125583       6.01394894      11.86680040       13       0.00000000       0.00000000       0.00000000       0.02066614       0.00000150      -0.02375839
P        4.02639307       6.01394894       5.35039128       14       0.00000000       0.00000000       0.00000000      -0.02066753       0.00000007      -0.02375613
P        2.14537286       2.00464965       7.68242696       15       0.00000000       0.00000000       0.00000000       0.02066887       0.00000066       0.02375787
S        5.08970823       2.00464965       1.30575389       16       0.00000000       0.00000000       0.00000000      -0.25450614      -0.00000085       0.01679009
S        1.08205770       6.01394894      11.72706435       17       0.00000000       0.00000000       0.00000000       0.25450706       0.00000081      -0.01679195
S        2.00382526       6.01394894       5.21065523       18       0.00000000       0.00000000       0.00000000      -0.25450587      -0.00000034      -0.01679198
S        4.16794067       2.00464965       7.82216301       19       0.00000000       0.00000000       0.00000000       0.25450084       0.00000142       0.01678988
S        1.68132889       2.00464965      12.25955363       20       0.00000000       0.00000000       0.00000000       0.10912263       0.00000024      -0.16719647
S        4.49043704       6.01394894       0.77326461       21       0.00000000       0.00000000       0.00000000      -0.10912036       0.00000047       0.16718103
S        4.76721186       6.01394894       7.28967373       22       0.00000000       0.00000000       0.00000000       0.10912039       0.00000017       0.16717875
S        1.40455407       2.00464965       5.74314451       23       0.00000000       0.00000000       0.00000000      -0.10911919       0.00000038      -0.16718045
S        1.67233151       0.29287049       2.00524453       24       0.00000000       0.00000000       0.00000000       0.13957860      -0.21272759       0.08709842
S        4.49943442       7.72572810      11.02757371       25       0.00000000       0.00000000       0.00000000      -0.13957550       0.21272494      -0.08709225
S        4.75821447       7.72572810       4.51116459       26       0.00000000       0.00000000       0.00000000       0.13957506       0.21272498      -0.08709187
S        1.41355146       0.29287049       8.52165365       27       0.00000000       0.00000000       0.00000000      -0.13957641      -0.21272007       0.08709067
S        4.49943442       4.30216979      11.02757371       28       0.00000000       0.00000000       0.00000000      -0.13957702      -0.21272530      -0.08709337
S        1.67233151       3.71642880       2.00524453       29       0.00000000       0.00000000       0.00000000       0.13957831       0.21272609       0.08709975
S        1.41355146       3.71642880       8.52165365       30       0.00000000       0.00000000       0.00000000      -0.13957578       0.21272083       0.08709176
S        4.75821447       4.30216979       4.51116459       31       0.00000000       0.00000000       0.00000000       0.13957632      -0.21272507      -0.08709362
32
Lattice="6.17176593 0.0 0.0 0.0 8.01859859 0.0 0.0 0.0 13.03281824" Properties=species:S:1:pos:R:3:spacegroup_kinds:I:1:momenta:R:3:forces:R:3 spacegroup="P 1" unit_cell=conventional occupancy="_JSON {\"0\": {\"Li\": 1}, \"1\": {\"Li\": 1}, \"2\": {\"Li\": 1}, \"3\": {\"Li\": 1}, \"4\": {\"Li\": 1}, \"5\": {\"Li\": 1}, \"6\": {\"Li\": 1}, \"7\": {\"Li\": 1}, \"8\": {\"Li\": 1}, \"9\": {\"Li\": 1}, \"10\": {\"Li\": 1}, \"11\": {\"Li\": 1}, \"12\": {\"P\": 1}, \"13\": {\"P\": 1}, \"14\": {\"P\": 1}, \"15\": {\"P\": 1}, \"16\": {\"S\": 1}, \"17\": {\"S\": 1}, \"18\": {\"S\": 1}, \"19\": {\"S\": 1}, \"20\": {\"S\": 1}, \"21\": {\"S\": 1}, \"22\": {\"S\": 1}, \"23\": {\"S\": 1}, \"24\": {\"S\": 1}, \"25\": {\"S\": 1}, \"26\": {\"S\": 1}, \"27\": {\"S\": 1}, \"28\": {\"S\": 1}, \"29\": {\"S\": 1}, \"30\": {\"S\": 1}, \"31\": {\"S\": 1}}" energy=-140.32057189941406 free_energy=-140.32057189941406 stress="-0.00692155072465539 3.395390012883581e-05 1.2518646144599188e-05 3.395390012883581e-05 -0.008094397373497486 8.933230128604919e-05 1.2518646144599188e-05 8.933230128604919e-05 -0.005240219179540873" pbc="T T T"
Li       2.40097091       0.26881572       4.33492867        0      -0.13335355      -0.00332717       0.03639903      -0.02244754       0.00264041      -0.00343728
Li       3.76793908       7.75010214       8.70128435        1      -0.09364597      -0.00296388       0.13341706       0.02735063      -0.00550467      -0.00168882
Li       5.48804480       7.74658605       2.17916395        2      -0.08821449      -0.13127611      -0.11009465      -0.02208728       0.00403603       0.01155785
Li       0.68071635       0.26721126      10.85028391        3      -0.10541302      -0.07304442       0.00105501       0.02918380       0.00879623      -0.00410409
Li       3.76650836       4.27952837       8.69799538        4       0.00341287       0.03285742      -0.01426010       0.02823387       0.00268126       0.00381956
Li       2.40240659       3.73866657       4.33249328        5      -0.05369344      -0.11900959      -0.06513107      -0.02500176       0.00029386      -0.00091375
Li       0.68522751       3.73859359      10.85201422        6       0.03326935      -0.05843980       0.11408219       0.01786391       0.00008986      -0.00873851
Li       5.48607268       4.27794744       2.18489270        7      -0.12136633       0.01572812       0.10275760      -0.01604532       0.00208476      -0.00202974
Li       3.08614874      -0.00064069      -0.00165870        8      -0.01243500      -0.08444504      -0.05385976      -0.00376585       0.00185002       0.00401246
Li      -0.00267394      -0.00088279       6.51709293        9      -0.12148450      -0.05492428       0.03946655       0.00433044       0.00301833       0.00407886
Li       3.08369332       4.01037319      -0.00033570       10      -0.05404753       0.09053071      -0.04010682       0.00128967       0.00066484      -0.00169105
Li      -0.00259566       4.00620687       6.51832757       11      -0.09366776      -0.20300383       0.02193906      -0.00155086       0.00161466       0.00010007
P        0.94082859       2.00304574       1.16535758       12       0.12795668      -0.28275710      -0.16146510      -0.01049321       0.04365034       0.04046774
P        5.23029301       6.01386843      11.86671511       13      -0.23364368      -0.15993804      -0.07809459       0.03169318      -0.02131929      -0.04230699
P        4.02731613       6.01451966       5.34949514       14       0.18651666       0.07717259      -0.17884944      -0.03978789       0.00897439      -0.00397892
P        2.14532266       2.00422863       7.68275355       15      -0.00559194      -0.07789388       0.01332967       0.04217100       0.01608877       0.02928397
S        5.09054653       2.00524158       1.30485837       16       0.14556339       0.21008380      -0.12493406      -0.25975421      -0.00611035       0.01796211
S        1.08253255       6.01381479      11.72598739       17       0.14165077       0.00027833      -0.17367202       0.22993504       0.00015148      -0.01425420
S        2.00346017       6.01386027       5.21198173       18      -0.12096101      -0.04586810       0.15561586      -0.23131874       0.00004188      -0.02101029
S        4.16927128       2.00437665       7.82240423       19       0.24780389      -0.09061617       0.02292600       0.23475118       0.00179691       0.01651394
S        1.68174929       2.00414932      12.25935993       20       0.04779910      -0.09797442      -0.03205890       0.11118606      -0.00589054      -0.16986836
S        4.48988348       6.01436049       0.77315097       21      -0.09399900       0.09561044      -0.12639822      -0.11043949      -0.00477060       0.16251600
S        4.76741511       6.01442088       7.29058664       22       0.05298349       0.19614401       0.19979065       0.10555820      -0.00154127       0.14850698
S        1.40428379       2.00517990       5.74434979       23      -0.11869846       0.19592937       0.19262904      -0.11195421      -0.00409597      -0.17564633
S        1.67271613       0.29307072       2.00554741       24       0.15455721      -0.00246775      -0.07168439       0.14150153      -0.22498226       0.08802280
S        4.49817914       7.72608064      11.02741037       25      -0.17482085      -0.01398213       0.04314444      -0.13380860       0.20481138      -0.08152244
S        4.75909746       7.72748992       4.51168048       26       0.13910134       0.41086411       0.15741648       0.13200240       0.20183674      -0.09295225
S        1.41422567       0.29330750       8.52218288       27       0.08942880       0.06189086       0.11038421      -0.14535594      -0.22138676       0.09031286
S        4.49843276       4.30082406      11.02595330       28      -0.12148818      -0.34403649      -0.27054037      -0.12465046      -0.18694502      -0.06929643
S        1.67367227       3.71711048       2.00564809       29       0.33143984       0.04314770       0.04803989       0.12054134       0.18534529       0.07094776
S        1.41358316       3.71675281       8.52156589       30       0.02982585       0.19888230       0.12122471      -0.13859428       0.20537712       0.08825463
S        4.75827609       4.30255295       4.51068233       31       0.01521549       0.21684845      -0.01246793       0.13946331      -0.21329771      -0.08291817
32
Lattice="6.17176593 0.0 0.0 0.0 8.01859859 0.0 0.0 0.0 13.03281824" Properties=species:S:1:pos:R:3:spacegroup_kinds:I:1:momenta:R:3:forces:R:3 spacegroup="P 1" unit_cell=conventional occupancy="_JSON {\"0\": {\"Li\": 1}, \"1\": {\"Li\": 1}, \"2\": {\"Li\": 1}, \"3\": {\"Li\": 1}, \"4\": {\"Li\": 1}, \"5\": {\"Li\": 1}, \"6\": {\"Li\": 1}, \"7\": {\"Li\": 1}, \"8\": {\"Li\": 1}, \"9\": {\"Li\": 1}, \"10\": {\"Li\": 1}, \"11\": {\"Li\": 1}, \"12\": {\"P\": 1}, \"13\": {\"P\": 1}, \"14\": {\"P\": 1}, \"15\": {\"P\": 1}, \"16\": {\"S\": 1}, \"17\": {\"S\": 1}, \"18\": {\"S\": 1}, \"19\": {\"S\": 1}, \"20\": {\"S\": 1}, \"21\": {\"S\": 1}, \"22\": {\"S\": 1}, \"23\": {\"S\": 1}, \"24\": {\"S\": 1}, \"25\": {\"S\": 1}, \"26\": {\"S\": 1}, \"27\": {\"S\": 1}, \"28\": {\"S\": 1}, \"29\": {\"S\": 1}, \"30\": {\"S\": 1}, \"31\": {\"S\": 1}}" energy=-140.32254028320312 free_energy=-140.32254028320312 stress="-0.00634484738111496 0.0001113115722546354 2.5781275326153263e-05 0.0001113115722546354 -0.007868536747992039 0.00017878395738080144 2.5781275326153263e-05 0.00017878395738080144 -0.005321816075593233" pbc="T T T"
Li       2.39421918       0.26887415       4.33669587        0      -0.21576228       0.01886907       0.05380929      -0.01186526      -0.00406089      -0.00432542
Li       3.76558856       7.74912312       8.70772618        1      -0.00292630      -0.04910026       0.26992927       0.02950570      -0.00511662      -0.01550362
Li       5.48186843       7.74367153       2.17811780        2      -0.25826473      -0.10525239       0.02826087      -0.00898144       0.01504859       0.01564424
Li       0.67672531       0.26435335      10.85154210        3      -0.11551555      -0.07394322       0.06044540       0.03665955       0.01536454      -0.00474082
Li       3.76637104       4.27846308       8.69805795        4      -0.02225244      -0.06976021      -0.04256087       0.02868061       0.00405010      -0.00232226
Li       2.39927579       3.73316855       4.33175417        5      -0.09625756      -0.13544573      -0.00988902      -0.01728888       0.01621372      -0.00272819
Li       0.68744108       3.73712078      10.85408958        6       0.05598187       0.00856691       0.01291911       0.01641577       0.00434037      -0.01330109
Li       5.48148242       4.27848909       2.19107266        7      -0.15716179       0.07623640       0.22735893       0.00033380      -0.00188648      -0.01643971
Li       3.08544552      -0.00368582      -0.00384549        8      -0.05814712      -0.12736630      -0.01619072      -0.01040685       0.00498837       0.00656397
Li      -0.00527879      -0.00035351       6.52026098        9      -0.02377940       0.05246451       0.11079503       0.00240996       0.00252982       0.00486607
Li       3.08495582       4.01095839      -0.00122447       10       0.05617770      -0.05106062       0.00256949      -0.00464927      -0.00220553       0.00196683
Li      -0.00683815       3.99986078       6.52069134       11      -0.12771265      -0.18514767       0.08644306      -0.00442929       0.00823515       0.00408621
P        0.94160151       2.00057624       1.16412978       12       0.21410872      -0.19616059      -0.35460445       0.01225062       0.12323385       0.07338572
P        5.22741023       6.01161186      11.86583288       13      -0.43927627      -0.49249114      -0.29383055       0.09827875      -0.00899966      -0.05161821
P        4.02822193       6.01523096       5.34824096       14       0.12264967       0.17043509       0.00926063      -0.07785264       0.04356524       0.02875536
P        2.14524527       2.00352484       7.68258546       15      -0.14778110      -0.04279043       0.04153825       0.08455472       0.04146644       0.06154853
S        5.09226761       2.00619454       1.30428148       16       0.26240247       0.09263227       0.00384470      -0.27207425      -0.01068849       0.01864962
S        1.08376827       6.01407140      11.72408946       17       0.19832944       0.02973336      -0.20737702       0.16886021      -0.00485668      -0.00862750
S        2.00155314       6.01305638       5.21271958       18      -0.34496201      -0.07853951       0.16539079      -0.18057202       0.00056414      -0.02532934
S        4.17260878       2.00311438       7.82266484       19       0.62546497      -0.27878170       0.07338825       0.18372515       0.00112019       0.01528214
S        1.68259303       2.00375479      12.25962826       20       0.14905810      -0.00818317       0.03853167       0.11469933      -0.01412674      -0.18723828
S        4.48774297       6.01507174       0.77186942       21      -0.35928655       0.01590024      -0.21800696      -0.10946243      -0.01679495       0.16317001
S        4.76765963       6.01605695       7.29159952       22       0.10543465       0.19170737       0.13642658       0.09618285      -0.00846296       0.12590842
S        1.40387877       2.00718800       5.74626370       23       0.10674941       0.37601834       0.23158175      -0.11920273      -0.01668496      -0.19367491
S        1.67357059       0.29330655       2.00496825       24       0.02027664      -0.05335382       0.02624919       0.13862401      -0.24734896       0.09723939
S        4.49681419       7.72546669      11.02729478       25      -0.16807986      -0.14018500      -0.06781831      -0.13387676       0.19663867      -0.07595800
S        4.76039593       7.73100383       4.51305673       26       0.08398272       0.54679850       0.13519422       0.11095849       0.18002667      -0.09438539
S        1.41390979       0.29357641       8.52281604       27      -0.04130565       0.00977543       0.05388579      -0.14332417      -0.21929424       0.09088213
S        4.49865827       4.29858717      11.02379591       28       0.07724998      -0.23003059      -0.42333288      -0.12224918      -0.18348050      -0.05989092
S        1.67677540       3.71921923       2.00518563       29       0.36938543       0.35577398      -0.11097217       0.08657638       0.13298234       0.04821551
S        1.41425255       3.71787244       8.52174755       30       0.02031684       0.13802284       0.02343802      -0.12973367       0.18296616       0.08376031
S        4.75893576       4.30429722       4.51079918       31       0.11090262       0.23465803      -0.04667732       0.13725306      -0.22932664      -0.08384088
32
Lattice="6.17176593 0.0 0.0 0.0 8.01859859 0.0 0.0 0.0 13.03281824" Properties=species:S:1:pos:R:3:spacegroup_kinds:I:1:momenta:R:3:forces:R:3 spacegroup="P 1" unit_cell=conventional occupancy="_JSON {\"0\": {\"Li\": 1}, \"1\": {\"Li\": 1}, \"2\": {\"Li\": 1}, \"3\": {\"Li\": 1}, \"4\": {\"Li\": 1}, \"5\": {\"Li\": 1}, \"6\": {\"Li\": 1}, \"7\": {\"Li\": 1}, \"8\": {\"Li\": 1}, \"9\": {\"Li\": 1}, \"10\": {\"Li\": 1}, \"11\": {\"Li\": 1}, \"12\": {\"P\": 1}, \"13\": {\"P\": 1}, \"14\": {\"P\": 1}, \"15\": {\"P\": 1}, \"16\": {\"S\": 1}, \"17\": {\"S\": 1}, \"18\": {\"S\": 1}, \"19\": {\"S\": 1}, \"20\": {\"S\": 1}, \"21\": {\"S\": 1}, \"22\": {\"S\": 1}, \"23\": {\"S\": 1}, \"24\": {\"S\": 1}, \"25\": {\"S\": 1}, \"26\": {\"S\": 1}, \"27\": {\"S\": 1}, \"28\": {\"S\": 1}, \"29\": {\"S\": 1}, \"30\": {\"S\": 1}, \"31\": {\"S\": 1}}" energy=-140.3251953125 free_energy=-140.3251953125 stress="-0.005427874159067869 0.00012553557462524623 1.9473302472761134e-06 0.00012553557462524623 -0.007335100322961807 0.00020754404249601066 1.9473302472761134e-06 0.00020754404249601066 -0.00528103020042181" pbc="T T T"
Li       2.38636770       0.26889531       4.33752943        0      -0.22661386       0.04080915      -0.05743336      -0.00154286      -0.01053986      -0.00553226
Li       3.76570394       7.74539391       8.71889655        1      -0.02720925      -0.16520973       0.27244992       0.02179409       0.00262122      -0.03936881
Li       5.47075878       7.73929618       2.17879551        2      -0.23900651      -0.10014268       0.01666534       0.01220279       0.03287440       0.01409974
Li       0.67404061       0.26020498      10.85239239        3      -0.09303021      -0.20531962       0.08187380       0.04262596       0.02230744      -0.00554126
Li       3.76630452       4.27577130       8.69591914        4       0.03188104      -0.00802561      -0.07942886       0.03120467       0.00766411      -0.00626084
Li       2.39634735       3.72568416       4.33171813        5      -0.10554371      -0.24890205      -0.02975365      -0.00618121       0.03768842      -0.00594157
Li       0.69182764       3.73645750      10.85474484        6       0.10509977      -0.01923312       0.03717533       0.01255503       0.00884083      -0.01436538
Li       5.47563859       4.27969946       2.19869741        7      -0.18105298      -0.00484427       0.13006525       0.01733005      -0.00763913      -0.03538413
Li       3.08326338      -0.00958482      -0.00394713        8       0.01161287      -0.22295001      -0.01394494      -0.01492225       0.00670546       0.00615273
Li      -0.00347912       0.00080552       6.52838505        9       0.09438840       0.02515435       0.27863500      -0.01288433      -0.00339414      -0.01109689
Li       3.08774137       4.00847630      -0.00097846       10       0.04623030      -0.04267693      -0.03338506      -0.00657424      -0.00280274       0.00693348
Li      -0.01128781       3.99354771       6.52426583       11      -0.09573053      -0.14082758       0.09653754      -0.01229308       0.01524692       0.00122168
P        0.94445918       1.99956464       1.16224018       12       0.34794403      -0.13011094      -0.08102196      -0.00282349       0.16500284       0.13194203
P        5.22374723       6.00785546      11.86321052       13      -0.59639175      -0.48981952      -0.28361937       0.17418821       0.02715980      -0.02638458
P        4.02866173       6.01772854       5.34699382       14       0.06155882       0.34833760      -0.23044713      -0.09596346       0.05103989       0.04607056
P        2.14478862       2.00433746       7.68231565       15       0.07332290       0.14348332      -0.06313863       0.15643394       0.03381832       0.10305669
S        5.09393389       2.00787268       1.30464238       16       0.16271742       0.30337187       0.14307665      -0.25347823      -0.01532379       0.01421391
S        1.08525673       6.01433640      11.72289660       17       0.10743853      -0.09738765      -0.14086019       0.09670716      -0.01487095      -0.00515977
S        1.99908488       6.01239991       5.21355854       18      -0.25180368      -0.01462790       0.07614146      -0.12410004      -0.00002948      -0.02880617
S        4.17781029       2.00087287       7.82476957       19       0.70961411      -0.18329807       0.52535581       0.09439472       0.00329850       0.01356155
S        1.68382582       2.00292192      12.25902309       20       0.16196315      -0.18251435      -0.09449442       0.12209088      -0.01967779      -0.20097165
S        4.48465144       6.01487477       0.77085543       21      -0.42154173      -0.05431691      -0.12003723      -0.10333335      -0.03113709       0.13693498
S        4.76842798       6.01840528       7.29310820       22       0.14909091       0.33437281       0.24192408       0.08303498      -0.01870127       0.08988077
S        1.40413040       2.00974797       5.74816024       23       0.12843617       0.28936853       0.19156233      -0.12739797      -0.02935994      -0.20984071
S        1.67329724       0.29099741       2.00490245       24      -0.06963720      -0.46871875       0.01611389       0.12404188      -0.23134899       0.08846007
S        4.49610149       7.72498907      11.02662053       25       0.00170741       0.02843627      -0.23465376      -0.13345939       0.18220396      -0.05875846
S        4.76091315       7.73658396       4.51348711       26       0.08265092       0.85509941       0.05710616       0.08938541       0.14462458      -0.07553707
S        1.41239311       0.29308113       8.52254174       27      -0.29991063      -0.11573772      -0.13408876      -0.12071338      -0.19264291       0.09160136
S        4.49873224       4.29590912      11.02109491       28      -0.05424118      -0.39280952      -0.27353680      -0.12228021      -0.19327617      -0.06123876
S        1.67936253       3.72283629       2.00547188       29       0.29031731       0.63812980       0.12274037       0.05888812       0.07348336       0.01988710
S        1.41430846       3.72014542       8.52131402       30      -0.06524167       0.30607981      -0.09996150      -0.11712846       0.16090558       0.08174918
S        4.76015427       4.30515667       4.50931873       31       0.16098084      -0.02516996      -0.31761723       0.11819794      -0.20474133      -0.05557746
32
Lattice="6.17176593 0.0 0.0 0.0 8.01859859 0.0 0.0 0.0 13.03281824" Properties=species:S:1:pos:R:3:spacegroup_kinds:I:1:momenta:R:3:forces:R:3 spacegroup="P 1" unit_cell=conventional occupancy="_JSON {\"0\": {\"Li\": 1}, \"1\": {\"Li\": 1}, \"2\": {\"Li\": 1}, \"3\": {\"Li\": 1}, \"4\": {\"Li\": 1}, \"5\": {\"Li\": 1}, \"6\": {\"Li\": 1}, \"7\": {\"Li\": 1}, \"8\": {\"Li\": 1}, \"9\": {\"Li\": 1}, \"10\": {\"Li\": 1}, \"11\": {\"Li\": 1}, \"12\": {\"P\": 1}, \"13\": {\"P\": 1}, \"14\": {\"P\": 1}, \"15\": {\"P\": 1}, \"16\": {\"S\": 1}, \"17\": {\"S\": 1}, \"18\": {\"S\": 1}, \"19\": {\"S\": 1}, \"20\": {\"S\": 1}, \"21\": {\"S\": 1}, \"22\": {\"S\": 1}, \"23\": {\"S\": 1}, \"24\": {\"S\": 1}, \"25\": {\"S\": 1}, \"26\": {\"S\": 1}, \"27\": {\"S\": 1}, \"28\": {\"S\": 1}, \"29\": {\"S\": 1}, \"30\": {\"S\": 1}, \"31\": {\"S\": 1}}" energy=-140.32603454589844 free_energy=-140.32603454589844 stress="-0.0044884830713272095 0.0001734873076202348 -5.157283158041537e-05 0.0001734873076202348 -0.0065210238099098206 0.00020656498963944614 -5.157283158041537e-05 0.00020656498963944614 -0.005077740643173456" pbc="T T T"
Li       2.37656218       0.26866485       4.33515596        0      -0.33221690      -0.06404716      -0.05655775       0.01202622      -0.01747084      -0.00069512
Li       3.76410604       7.74150200       8.72956007        1      -0.01929956      -0.03982254       0.38853772       0.01362276       0.01005416      -0.06512091
Li       5.46093095       7.73635611       2.17956194        2      -0.30157822      -0.05668192      -0.03928259       0.02910442       0.04670054       0.01475807
Li       0.67005499       0.25270404      10.85447853        3      -0.12913320      -0.24297668       0.01323150       0.05505486       0.03545063      -0.01100487
Li       3.77084816       4.27393214       8.69347435        4       0.19347476      -0.06438499      -0.11512163       0.02252167       0.00965329      -0.00974185
Li       2.39190246       3.71830339       4.33153380        5      -0.13657232      -0.18962320       0.01914471       0.00820731       0.05813259      -0.00793518
Li       0.69392408       3.73433774      10.85678421        6       0.07060150      -0.04388094       0.05103588       0.01257746       0.01238019      -0.02019522
Li       5.46944406       4.27863696       2.20358620        7      -0.14781886      -0.01726759       0.19186756       0.03298187      -0.00660737      -0.04955416
Li       3.08137204      -0.01711367      -0.00416922        8      -0.06073828      -0.18354893      -0.01446090      -0.01962148       0.01079635       0.00290292
Li      -0.00127174       0.00184867       6.53773728        9       0.02538062      -0.02192160       0.24624476      -0.02998592      -0.00981438      -0.02932444
Li       3.08898355       4.00826458      -0.00073840       10       0.11108895       0.01540655       0.00730493      -0.01085126      -0.00445746       0.01131986
Li      -0.01257217       3.98917819       6.52817438       11       0.10145830      -0.10863975       0.07513845      -0.02318042       0.02419116      -0.00624635
P        0.94746676       1.99876736       1.16067758       12       0.42996127      -0.21419212      -0.24831246      -0.00190800       0.21071282       0.18735330
P        5.21999623       6.00376463      11.86063895       13      -0.31550321      -0.54428315      -0.25534654       0.23702228       0.07924335      -0.00196208
P        4.02936488       6.02029289       5.34534827       14       0.08376009       0.46700230      -0.17237314      -0.10083523       0.05832346       0.06793137
P        2.14493834       2.00522316       7.68154050       15      -0.06202209       0.10870756      -0.16802559       0.19973844       0.00777398       0.16155769
S        5.09567909       2.01011910       1.30579844       16       0.17736239       0.28793420       0.16780496      -0.22830817      -0.02303645       0.00744130
S        1.08637717       6.01317888      11.72192212       17       0.03813376      -0.18543551      -0.00981366       0.02984615      -0.02646112       0.00007078
S        1.99700274       6.01126765       5.21438568       18      -0.31325782      -0.33043702       0.09117182      -0.06836617       0.00270253      -0.03299281