32
Lattice="6.17176593 0.0 0.0 0.0 8.01859859 0.0 0.0 0.0 13.03281824" Properties=species:S:1:pos:R:3:spacegroup_kinds:I:1:forces:R:3 spacegroup="P 1" unit_cell=conventional occupancy="_JSON {\"0\": {\"Li\": 1}, \"1\": {\"Li\": 1}, \"2\": {\"Li\": 1}, \"3\": {\"Li\": 1}, \"4\": {\"Li\": 1}, \"5\": {\"Li\": 1}, \"6\": {\"Li\": 1}, \"7\": {\"Li\": 1}, \"8\": {\"Li\": 1}, \"9\": {\"Li\": 1}, \"10\": {\"Li\": 1}, \"11\": {\"Li\": 1}, \"12\": {\"P\": 1}, \"13\": {\"P\": 1}, \"14\": {\"P\": 1}, \"15\": {\"P\": 1}, \"16\": {\"S\": 1}, \"17\": {\"S\": 1}, \"18\": {\"S\": 1}, \"19\": {\"S\": 1}, \"20\": {\"S\": 1}, \"21\": {\"S\": 1}, \"22\": {\"S\": 1}, \"23\": {\"S\": 1}, \"24\": {\"S\": 1}, \"25\": {\"S\": 1}, \"26\": {\"S\": 1}, \"27\": {\"S\": 1}, \"28\": {\"S\": 1}, \"29\": {\"S\": 1}, \"30\": {\"S\": 1}, \"31\": {\"S\": 1}}" energy=-140.31869506835938 free_energy=-140.31869506835938 stress="-0.007170630618929863 -9.994553629155689e-09 1.1349492456957933e-09 -9.994553629155689e-09 -0.008259404450654984 8.728825662274176e-09 1.1349492456957933e-09 8.728825662274176e-09 -0.005266313906759024" pbc="T T T"
Li       2.40329652       0.26860172       4.33400832        0      -0.02603558       0.00549067      -0.00432152
Li       3.76846941       7.74999687       8.69880992        1       0.02603723      -0.00549140       0.00432367
Li       5.48917948       7.74999687       2.18240080        2      -0.02603619      -0.00549057       0.00432304
Li       0.68258645       0.26860172      10.85041744        3       0.02603494       0.00549228      -0.00431932
Li       3.76846941       4.27790102       8.69880992        4       0.02603640       0.00549116       0.00432236
Li       2.40329652       3.74069757       4.33400832        5      -0.02603565      -0.00549150      -0.00432093
Li       0.68258645       3.74069757      10.85041744        6       0.02603644      -0.00549239      -0.00432012
Li       5.48917948       4.27790102       2.18240080        7      -0.02603598       0.00549076       0.00432246
Li       3.08588297       0.00000000       0.00000000        8      -0.00000019      -0.00000123      -0.00000005
Li       0.00000000       0.00000000       6.51640912        9       0.00000049      -0.00000170       0.00000031
Li       3.08588297       4.00929929       0.00000000       10      -0.00000047       0.00000248      -0.00000042
Li       0.00000000       4.00929929       6.51640912       11       0.00000051      -0.00000023      -0.00000126
P        0.94051010       2.00464965       1.16601784       12      -0.02067232      -0.00000172       0.02375998
P        5.23125583       6.01394894      11.86680040       13       0.02066614       0.00000150      -0.02375839
P        4.02639307       6.01394894       5.35039128       14      -0.02066753       0.00000007      -0.02375613
P        2.14537286       2.00464965       7.68242696       15       0.02066887       0.00000066       0.02375787
S        5.08970823       2.00464965       1.30575389       16      -0.25450614      -0.00000085       0.01679009
S        1.08205770       6.01394894      11.72706435       17       0.25450706       0.00000081      -0.01679195
S        2.00382526       6.01394894       5.21065523       18      -0.25450587      -0.00000034      -0.01679198
S        4.16794067       2.00464965       7.82216301       19       0.25450084       0.00000142       0.01678988
S        1.68132889       2.00464965      12.25955363       20       0.10912263       0.00000024      -0.16719647
S        4.49043704       6.01394894       0.77326461       21      -0.10912036       0.00000047       0.16718103
S        4.76721186       6.01394894       7.28967373       22       0.10912039       0.00000017       0.16717875
S        1.40455407       2.00464965       5.74314451       23      -0.10911919       0.00000038      -0.16718045
S        1.67233151       0.29287049       2.00524453       24       0.13957860      -0.21272759       0.08709842
S        4.49943442       7.72572810      11.02757371       25      -0.13957550       0.21272494      -0.08709225
S        4.75821447       7.72572810       4.51116459       26       0.13957506       0.21272498      -0.08709187
S        1.41355146       0.29287049       8.52165365       27      -0.13957641      -0.21272007       0.08709067
S        4.49943442       4.30216979      11.02757371       28      -0.13957702      -0.21272530      -0.08709337
S        1.67233151       3.71642880       2.00524453       29       0.13957831       0.21272609       0.08709975
S        1.41355146       3.71642880       8.52165365       30      -0.13957578       0.21272083       0.08709176
S        4.75821447       4.30216979       4.51116459       31       0.13957632      -0.21272507      -0.08709362
