13
Lattice="7.26870274 0.0 0.0 3.634351370000001 6.294881225397555 0.0 3.634351370000001 2.0982937417991856 5.934870934989993" Properties=species:S:1:pos:R:3:spacegroup_kinds:I:1:momenta:R:3:forces:R:3 spacegroup="P 1" unit_cell=conventional occupancy="_JSON {\"0\": {\"Li\": 1}, \"1\": {\"Li\": 1}, \"2\": {\"Li\": 1}, \"3\": {\"Li\": 1}, \"4\": {\"Li\": 1}, \"5\": {\"Li\": 1}, \"6\": {\"P\": 1}, \"7\": {\"S\": 1}, \"8\": {\"S\": 1}, \"9\": {\"S\": 1}, \"10\": {\"S\": 1}, \"11\": {\"S\": 1}, \"12\": {\"Cl\": 1}}" energy=-53.52471923828125 free_energy=-53.52471923828125 stress="0.014079044573009014 -0.004008007235825062 0.006627735216170549 -0.004008007235825062 0.01755194552242756 -0.003858290845528245 0.006627735216170549 -0.003858290845528245 0.014397122897207737" pbc="T T T"
Li       9.03389225       7.22363298       3.25737650        0       0.02285748       0.59344489       0.19623083       0.24678117       0.30957037       0.09151995
Li      12.24273778       4.77913511       6.04244378        1       0.01225241       0.43551262       0.67839310      -0.17798325       0.03810357      -0.00017367
Li       9.65780581       4.35714730       4.79313092        2       0.34050609      -0.34468189      -0.35332055      -0.13424927      -0.08803893       0.18580374
Li      12.75411574       7.70091621       4.12117461        3      -0.58983976      -0.41152241      -0.29394070       0.18233642      -0.03046384      -0.05331074
Li      11.45901246       5.59577870       2.15424535        4       0.54711859      -0.10805120       0.09814588       0.11587022      -0.16595493       0.19674097
Li      10.03316748       7.81226850       5.90799467        5      -0.44923776      -0.54654959       0.01147881      -0.03028387       0.22139612       0.32438827
P        7.18248718       4.13914170       3.08464618        6       0.83306742       0.17805268       1.55990602      -0.07532378      -0.06989351      -0.96884096
S        7.03002244       6.21418046       2.51411459        7      -0.35532733       1.27726444      -1.23200495      -0.29820263      -0.95278072       0.09836151
S        9.13245679       3.44847616       2.58338483        8      -0.53885159       0.03525723      -1.60872108      -0.69862568       0.14466235      -0.18307352
S        5.72930246       3.16090713       1.88324559        9       0.16531205      -0.07748623      -1.24188951       0.52766156       0.49356973       0.81711876
S        7.06935395       3.81922793       5.10814247       10       0.12210848       0.15593144      -1.08991271       0.23249137       0.33636028      -0.19176170
S       10.94620772       6.25757987       4.55249787       11      -0.14908833      -0.39545993       1.67585049       0.02092857      -0.10211440      -0.64209616
Cl       0.18649603       0.27138899      -0.30707204       12       0.03912227      -0.79171207       1.59978431       0.08859916      -0.13441610       0.32532343
