13
Lattice="7.26870274 0.0 0.0 3.634351370000001 6.294881225397555 0.0 3.634351370000001 2.0982937417991856 5.934870934989993" Properties=species:S:1:pos:R:3:spacegroup_kinds:I:1:momenta:R:3:forces:R:3 spacegroup="P 1" unit_cell=conventional occupancy="_JSON {\"0\": {\"Li\": 1}, \"1\": {\"Li\": 1}, \"2\": {\"Li\": 1}, \"3\": {\"Li\": 1}, \"4\": {\"Li\": 1}, \"5\": {\"Li\": 1}, \"6\": {\"P\": 1}, \"7\": {\"S\": 1}, \"8\": {\"S\": 1}, \"9\": {\"S\": 1}, \"10\": {\"S\": 1}, \"11\": {\"S\": 1}, \"12\": {\"Cl\": 1}}" energy=-53.3634147644043 free_energy=-53.3634147644043 stress="-0.0007941864896565676 -2.3793832326646225e-07 -1.555720956503137e-07 -2.3793832326646225e-07 -0.0007939343922771513 -1.1015882250831055e-07 -1.555720956503137e-07 -1.1015882250831055e-07 -0.0007939068600535393" pbc="T T T"
Li       9.25387995       7.24703237       3.10460814        0       0.00000000       0.00000000       0.00000000       0.00422506      -0.00243408       0.00344802
Li      12.55222827       5.34273008       5.79769826        1       0.00000000       0.00000000       0.00000000      -0.00421065       0.00243313      -0.00344113
Li       9.25387995       5.34273008       5.79769826        2       0.00000000       0.00000000       0.00000000       0.00422422       0.00243846      -0.00344665
Li      12.55222827       7.24703237       3.10460814        3       0.00000000       0.00000000       0.00000000      -0.00421175      -0.00243080       0.00344028
Li      10.90305411       4.39057894       3.10460814        4       0.00000000       0.00000000       0.00000000       0.00000257       0.00487646       0.00344852
Li      10.90305411       8.19918351       5.79769826        5       0.00000000       0.00000000       0.00000000       0.00000182      -0.00486329      -0.00344129
P        7.26870274       4.19658748       2.96743547        6       0.00000000       0.00000000       0.00000000       0.00008597       0.00004641       0.00003633
S        7.26870637       6.13578650       2.28182731        7       0.00000000       0.00000000       0.00000000      -0.00001797      -0.01090924       0.00384740
S        8.94810016       3.22699113       2.28182731        8       0.00000000       0.00000000       0.00000000      -0.00945763       0.00544026       0.00384728
S        5.58931258       3.22699113       2.28182731        9       0.00000000       0.00000000       0.00000000       0.00937733       0.00541248       0.00382974
S        7.26870637       4.19658958       5.02426588       10       0.00000000       0.00000000       0.00000000      -0.00001888      -0.00000984      -0.01156904
S       10.90305411       6.29488123       4.45115320       11       0.00000000       0.00000000       0.00000000      -0.00000207      -0.00000112      -0.00000016
Cl       0.00000000       0.00000000       0.00000000       12       0.00000000       0.00000000       0.00000000       0.00000195       0.00000128       0.00000063
13
Lattice="7.26870274 0.0 0.0 3.634351370000001 6.294881225397555 0.0 3.634351370000001 2.0982937417991856 5.934870934989993" Properties=species:S:1:pos:R:3:spacegroup_kinds:I:1:momenta:R:3:forces:R:3 spacegroup="P 1" unit_cell=conventional occupancy="_JSON {\"0\": {\"Li\": 1}, \"1\": {\"Li\": 1}, \"2\": {\"Li\": 1}, \"3\": {\"Li\": 1}, \"4\": {\"Li\": 1}, \"5\": {\"Li\": 1}, \"6\": {\"P\": 1}, \"7\": {\"S\": 1}, \"8\": {\"S\": 1}, \"9\": {\"S\": 1}, \"10\": {\"S\": 1}, \"11\": {\"S\": 1}, \"12\": {\"Cl\": 1}}" energy=-53.29648971557617 free_energy=-53.29648971557617 stress="-0.0030841385014355183 0.002680483739823103 0.002143305726349354 0.002680483739823103 -0.0004956229822710156 0.0009366907179355621 0.002143305726349354 0.0009366907179355621 0.0019886477384716272" pbc="T T T"
Li       9.32683668       7.29907544       3.12756837        0      -0.03595261      -0.25478614      -0.05121028       0.02277445      -0.35546300       0.13850363
Li      12.44448102       5.06840801       5.87113278        1       0.01751022      -0.68344819       0.19123382      -0.17489001      -0.04231787       0.05868175
Li       9.43007225       5.01985011       5.72401419        2      -0.05881539      -0.77524241      -0.56649422       0.05033774      -0.08225786       0.07247492
Li      12.66675860       7.19424760       3.13117430        3      -0.10050005       0.39788954      -0.11469394      -0.29819077       0.23124634       0.15303051
Li      10.96713822       4.39842284       3.04687400        4       0.43757721      -0.23692069      -0.32076503      -0.22440809       0.08633754      -0.04119488
Li      10.91975873       8.25498010       5.74510797        5      -0.06553507       0.05995244      -0.36422693       0.00013647      -0.12603393      -0.04838492
P        7.18197720       4.25681867       2.94177787        6      -0.64399782       0.74676648       0.89494196       0.61128402      -0.98805642       0.41726935
S        7.27000657       6.14541812       2.23524996        7      -0.17979137      -0.57342114      -0.75070850       0.12119580       0.43272153      -0.20374410
S        8.87777998       3.23635561       2.33721847        8       0.10830611      -0.60069755       0.85399916       0.12412985       0.07986960       0.04192814
S        5.57292486       3.16986977       2.24813072        9      -0.29725552       0.30866613      -0.51197999      -0.05169220       0.42099899      -0.09652343
S        7.22863082       4.27770425       5.02232447       10       0.36365297       0.78259615       0.17225165      -0.01671939      -0.02097218      -0.31739628
S       10.99830758       6.26248536       4.49260684       11      -0.17126983      -0.27960201       0.55906742      -0.14743356      -0.01622011      -0.16826637
Cl       0.03723713       0.04274886       0.02129690       12       0.62607114       1.10824738       0.00858485      -0.01652429       0.38014740      -0.00637831
13
Lattice="7.26870274 0.0 0.0 3.634351370000001 6.294881225397555 0.0 3.634351370000001 2.0982937417991856 5.934870934989993" Properties=species:S:1:pos:R:3:spacegroup_kinds:I:1:momenta:R:3:forces:R:3 spacegroup="P 1" unit_cell=conventional occupancy="_JSON {\"0\": {\"Li\": 1}, \"1\": {\"Li\": 1}, \"2\": {\"Li\": 1}, \"3\": {\"Li\": 1}, \"4\": {\"Li\": 1}, \"5\": {\"Li\": 1}, \"6\": {\"P\": 1}, \"7\": {\"S\": 1}, \"8\": {\"S\": 1}, \"9\": {\"S\": 1}, \"10\": {\"S\": 1}, \"11\": {\"S\": 1}, \"12\": {\"Cl\": 1}}" energy=-53.387550354003906 free_energy=-53.387550354003906 stress="-0.004567055497318506 0.0007916088798083365 0.002570896176621318 0.0007916088798083365 0.0038875385653227568 -0.004334650002419949 0.002570896176621318 -0.004334650002419949 0.009544335305690765" pbc="T T T"
Li       9.28314418       7.30756552       3.13987803        0      -0.19007120       0.42300903      -0.00536551      -0.07287958      -0.16473299       0.07043574
Li      12.12496404       4.70211935       6.11401025        1      -0.19208375      -0.79700628       0.37456422       0.36283952      -0.18999943      -0.35702008
Li       9.65829031       4.46267327       5.76759278        2      -0.25793929      -0.90085264       0.16633979      -0.32536930      -0.22478053      -0.26007283
Li      12.65920488       7.43647004       3.39041416        3       0.40686512      -0.06419203       0.63405053       0.21340655      -0.41757327       0.21368304
Li      10.88824100       4.57938919       2.84419161        4      -0.00542196       0.17702320      -0.33782519       0.32438740      -0.05291539      -0.36249983
Li      10.80261552       8.13546983       5.62033781        5       0.02863844       0.09909416       0.76743466      -0.10885274       0.10858092       0.31514162
P        7.22883550       4.26109033       2.94843463        6       0.07760947       0.06245043       0.18687849      -0.67499781       0.06476794       1.41811836
S        7.25941143       6.14513571       2.20269192        7      -0.85937072       0.42738611      -0.41035831       0.00103069       0.56540042      -0.11030054
S        8.94200099       3.32394245       2.49022318        8       0.86538415       0.30173436       0.84810226       0.62163758      -0.62025118      -0.69054210
S        5.61776656       3.26783493       2.14399946        9       1.21141909      -0.36056590      -0.69332918       0.00437357      -0.16907236       0.07233742
S        7.20860889       4.25986398       5.07694586       10       0.41522577      -0.48377704       0.07231268      -0.14476854      -0.07741486      -0.75681597
S       10.97149687       6.11094316       4.45255329       11      -0.94085576      -0.89224767      -1.20955819      -0.11403081       0.36640453       0.38765842
Cl       0.01534170       0.14435037      -0.05727315       12      -0.55939936       2.00794426      -0.39324625      -0.08677661       0.81158614       0.05987678
13
Lattice="7.26870274 0.0 0.0 3.634351370000001 6.294881225397555 0.0 3.634351370000001 2.0982937417991856 5.934870934989993" Properties=species:S:1:pos:R:3:spacegroup_kinds:I:1:momenta:R:3:forces:R:3 spacegroup="P 1" unit_cell=conventional occupancy="_JSON {\"0\": {\"Li\": 1}, \"1\": {\"Li\": 1}, \"2\": {\"Li\": 1}, \"3\": {\"Li\": 1}, \"4\": {\"Li\": 1}, \"5\": {\"Li\": 1}, \"6\": {\"P\": 1}, \"7\": {\"S\": 1}, \"8\": {\"S\": 1}, \"9\": {\"S\": 1}, \"10\": {\"S\": 1}, \"11\": {\"S\": 1}, \"12\": {\"Cl\": 1}}" energy=-53.55000686645508 free_energy=-53.55000686645508 stress="-0.008766348473727703 0.0006648105918429792 -0.0009093541302718222 0.0006648105918429792 0.008872773498296738 -0.003332601860165596 -0.0009093541302718222 -0.003332601860165596 0.014235841110348701" pbc="T T T"
Li       9.19736407       7.18721313       3.22427679        0       0.12772731       0.09833966      -0.06011517      -0.26120940       0.34717801      -0.19487418
Li      12.06612538       4.50303274       5.86346284        1       0.38504747       0.78702828      -0.61587778      -0.08795456       0.23880851       0.00470585
Li       9.42201477       4.34667565       5.43034788        2       0.27794897       1.15587957      -0.92877403       0.34588373       0.10442080      -0.08199427
Li      12.86218083       7.20676820       3.67992039        3       0.28534638       0.28086435       0.64867289      -0.07701912       0.45473453       0.18469092
Li      11.26856447       4.90105359       2.20254880        4       0.79859952       0.47354919      -0.89986997      -0.20258027       0.12406079       0.18382142
Li      10.65802985       7.85237288       5.84894159        5      -0.65280418      -0.43654735      -0.05177115      -0.13872936       0.65585685       0.40425646
P        7.28868366       4.18095093       3.07015724        6       0.03405429      -0.31118452      -0.66868347      -0.27955884       0.04194857       0.40741998
S        7.17602394       6.13052572       2.37238654        7      -0.38335891      -0.38772533       1.73964185       0.27299932      -0.01611815      -0.22491230
S        9.02205281       3.31885617       2.50021678        8       1.01242719      -0.87326586       0.25834741       0.49029371      -0.22545555      -0.09045040
S        5.78083288       3.18946875       2.11309240        9      -0.00790705      -0.87206896       0.43754103      -0.43722036      -0.22247978       0.08071326
S        7.08200211       4.22498176       5.18818789       10      -1.60040940      -0.54599042       1.96758352       0.14742869      -0.36208102      -0.80317849
S       10.87390985       6.22077379       4.36285280       11      -0.03767144       0.40264664      -0.12356707       0.26425272      -0.97219837      -0.04780776
Cl       0.01031227       0.35730605      -0.19490625       12      -0.23900017       0.22847470      -1.70312806      -0.03658625      -0.16867539       0.17760955
13
Lattice="7.26870274 0.0 0.0 3.634351370000001 6.294881225397555 0.0 3.634351370000001 2.0982937417991856 5.934870934989993" Properties=species:S:1:pos:R:3:spacegroup_kinds:I:1:momenta:R:3:forces:R:3 spacegroup="P 1" unit_cell=conventional occupancy="_JSON {\"0\": {\"Li\": 1}, \"1\": {\"Li\": 1}, \"2\": {\"Li\": 1}, \"3\": {\"Li\": 1}, \"4\": {\"Li\": 1}, \"5\": {\"Li\": 1}, \"6\": {\"P\": 1}, \"7\": {\"S\": 1}, \"8\": {\"S\": 1}, \"9\": {\"S\": 1}, \"10\": {\"S\": 1}, \"11\": {\"S\": 1}, \"12\": {\"Cl\": 1}}" energy=-53.52535629272461 free_energy=-53.52535629272461 stress="0.0034824651665985584 -0.0006224501994438469 0.0011528102913871408 -0.0006224501994438469 0.00977677945047617 0.0012213615700602531 0.0011528102913871408 0.0012213615700602531 0.0015269387513399124" pbc="T T T"
Li       9.18924979       7.28945371       3.26678605        0       0.51047665      -0.64460695       0.39940483      -0.28349352       0.20017742      -0.12514128
Li      11.96553391       4.72331057       5.72195136        1       0.23244981      -0.30683510       0.63944848       0.14384113      -0.09130537       0.12314695
Li       9.31022737       4.59918344       5.02828971        2       0.10897474      -0.47749526      -0.01914556       0.50602317       0.04039700       0.00995483
Li      12.95576673       7.75871244       4.22276103        3       0.12061167       0.62894012       0.60457891      -0.04521616      -0.25421298      -0.24164194
Li      11.30341349       5.32943823       2.14617972        4      -0.08640306       0.59998656       0.58338689       0.12413014      -0.14782262       0.00107136
Li      10.26977208       7.98152007       6.09173920        5      -0.32814587       0.49146584      -0.25573594       0.07430445      -0.24822265      -0.31840295
P        7.26597911       4.07194264       3.15275417        6      -0.44304492      -0.26186301      -1.47191351      -0.53458488       0.43398368      -2.12548804
S        7.08915897       6.06402608       2.50800235        7      -1.09891873      -1.07076719       0.34885178       0.25442615       0.06081419       0.26474768
S        9.10096762       3.35182689       2.59845537        8      -0.72347344       1.37083276       1.00259673      -0.02523051      -0.03776112      -0.10143880
S        5.72631749       3.17225319       2.06068216        9       0.22620890       0.88254131      -0.30010412       0.14413768       0.00656298       0.19225445
S        7.04504880       3.99882339       5.11743846       10       0.35530177      -1.70883902      -1.15410943      -0.20202836      -0.12615402       1.41996396
S       10.98551506       6.26958199       4.30247789       11      -0.17611503       1.06698790      -0.16809726      -0.27662143       0.28205782       0.43573439
Cl       0.11364457       0.32855890      -0.35661065       12       1.30207750      -0.57034803      -0.20916183       0.12031232      -0.11851432       0.46523929
13
Lattice="7.26870274 0.0 0.0 3.634351370000001 6.294881225397555 0.0 3.634351370000001 2.0982937417991856 5.934870934989993" Properties=species:S:1:pos:R:3:spacegroup_kinds:I:1:momenta:R:3:forces:R:3 spacegroup="P 1" unit_cell=conventional occupancy="_JSON {\"0\": {\"Li\": 1}, \"1\": {\"Li\": 1}, \"2\": {\"Li\": 1}, \"3\": {\"Li\": 1}, \"4\": {\"Li\": 1}, \"5\": {\"Li\": 1}, \"6\": {\"P\": 1}, \"7\": {\"S\": 1}, \"8\": {\"S\": 1}, \"9\": {\"S\": 1}, \"10\": {\"S\": 1}, \"11\": {\"S\": 1}, \"12\": {\"Cl\": 1}}" energy=-53.52471923828125 free_energy=-53.52471923828125 stress="0.014079044573009014 -0.004008007235825062 0.006627735216170549 -0.004008007235825062 0.01755194552242756 -0.003858290845528245 0.006627735216170549 -0.003858290845528245 0.014397122897207737" pbc="T T T"
Li       9.03389225       7.22363298       3.25737650        0       0.02285748       0.59344489       0.19623083       0.24678117       0.30957037       0.09151995
Li      12.24273778       4.77913511       6.04244378        1       0.01225241       0.43551262       0.67839310      -0.17798325       0.03810357      -0.00017367
Li       9.65780581       4.35714730       4.79313092        2       0.34050609      -0.34468189      -0.35332055      -0.13424927      -0.08803893       0.18580374
Li      12.75411574       7.70091621       4.12117461        3      -0.58983976      -0.41152241      -0.29394070       0.18233642      -0.03046384      -0.05331074
Li      11.45901246       5.59577870       2.15424535        4       0.54711859      -0.10805120       0.09814588       0.11587022      -0.16595493       0.19674097
Li      10.03316748       7.81226850       5.90799467        5      -0.44923776      -0.54654959       0.01147881      -0.03028387       0.22139612       0.32438827
P        7.18248718       4.13914170       3.08464618        6       0.83306742       0.17805268       1.55990602      -0.07532378      -0.06989351      -0.96884096
S        7.03002244       6.21418046       2.51411459        7      -0.35532733       1.27726444      -1.23200495      -0.29820263      -0.95278072       0.09836151
S        9.13245679       3.44847616       2.58338483        8      -0.53885159       0.03525723      -1.60872108      -0.69862568       0.14466235      -0.18307352
S        5.72930246       3.16090713       1.88324559        9       0.16531205      -0.07748623      -1.24188951       0.52766156       0.49356973       0.81711876
S        7.06935395       3.81922793       5.10814247       10       0.12210848       0.15593144      -1.08991271       0.23249137       0.33636028      -0.19176170
S       10.94620772       6.25757987       4.55249787       11      -0.14908833      -0.39545993       1.67585049       0.02092857      -0.10211440      -0.64209616
Cl       0.18649603       0.27138899      -0.30707204       12       0.03912227      -0.79171207       1.59978431       0.08859916      -0.13441610       0.32532343
