13
Lattice="7.26870274 0.0 0.0 3.634351370000001 6.294881225397555 0.0 3.634351370000001 2.0982937417991856 5.934870934989993" Properties=species:S:1:pos:R:3:spacegroup_kinds:I:1:forces:R:3 spacegroup="P 1" unit_cell=conventional occupancy="_JSON {\"0\": {\"Li\": 1}, \"1\": {\"Li\": 1}, \"2\": {\"Li\": 1}, \"3\": {\"Li\": 1}, \"4\": {\"Li\": 1}, \"5\": {\"Li\": 1}, \"6\": {\"P\": 1}, \"7\": {\"S\": 1}, \"8\": {\"S\": 1}, \"9\": {\"S\": 1}, \"10\": {\"S\": 1}, \"11\": {\"S\": 1}, \"12\": {\"Cl\": 1}}" energy=-53.3634147644043 free_energy=-53.3634147644043 stress="-0.0007941864896565676 -2.3793832326646225e-07 -1.555720956503137e-07 -2.3793832326646225e-07 -0.0007939343922771513 -1.1015882250831055e-07 -1.555720956503137e-07 -1.1015882250831055e-07 -0.0007939068600535393" pbc="T T T"
Li       9.25387995       7.24703237       3.10460814        0       0.00422506      -0.00243408       0.00344802
Li      12.55222827       5.34273008       5.79769826        1      -0.00421065       0.00243313      -0.00344113
Li       9.25387995       5.34273008       5.79769826        2       0.00422422       0.00243846      -0.00344665
Li      12.55222827       7.24703237       3.10460814        3      -0.00421175      -0.00243080       0.00344028
Li      10.90305411       4.39057894       3.10460814        4       0.00000257       0.00487646       0.00344852
Li      10.90305411       8.19918351       5.79769826        5       0.00000182      -0.00486329      -0.00344129
P        7.26870274       4.19658748       2.96743547        6       0.00008597       0.00004641       0.00003633
S        7.26870637       6.13578650       2.28182731        7      -0.00001797      -0.01090924       0.00384740
S        8.94810016       3.22699113       2.28182731        8      -0.00945763       0.00544026       0.00384728
S        5.58931258       3.22699113       2.28182731        9       0.00937733       0.00541248       0.00382974
S        7.26870637       4.19658958       5.02426588       10      -0.00001888      -0.00000984      -0.01156904
S       10.90305411       6.29488123       4.45115320       11      -0.00000207      -0.00000112      -0.00000016
Cl       0.00000000       0.00000000       0.00000000       12       0.00000195       0.00000128       0.00000063
