32
Lattice="6.17176593 0.0 0.0 0.0 8.01859859 0.0 0.0 0.0 13.03281824" Properties=species:S:1:pos:R:3:spacegroup_kinds:I:1:momenta:R:3:forces:R:3 spacegroup="P 1" unit_cell=conventional occupancy="_JSON {\"0\": {\"Li\": 1}, \"1\": {\"Li\": 1}, \"2\": {\"Li\": 1}, \"3\": {\"Li\": 1}, \"4\": {\"Li\": 1}, \"5\": {\"Li\": 1}, \"6\": {\"Li\": 1}, \"7\": {\"Li\": 1}, \"8\": {\"Li\": 1}, \"9\": {\"Li\": 1}, \"10\": {\"Li\": 1}, \"11\": {\"Li\": 1}, \"12\": {\"P\": 1}, \"13\": {\"P\": 1}, \"14\": {\"P\": 1}, \"15\": {\"P\": 1}, \"16\": {\"S\": 1}, \"17\": {\"S\": 1}, \"18\": {\"S\": 1}, \"19\": {\"S\": 1}, \"20\": {\"S\": 1}, \"21\": {\"S\": 1}, \"22\": {\"S\": 1}, \"23\": {\"S\": 1}, \"24\": {\"S\": 1}, \"25\": {\"S\": 1}, \"26\": {\"S\": 1}, \"27\": {\"S\": 1}, \"28\": {\"S\": 1}, \"29\": {\"S\": 1}, \"30\": {\"S\": 1}, \"31\": {\"S\": 1}}" energy=-139.1869659423828 free_energy=-139.1869659423828 stress="-0.008618240244686604 -0.0024129371158778667 0.0018992820987477899 -0.0024129371158778667 -0.006576580461114645 0.000458751164842397 0.0018992820987477899 0.000458751164842397 -0.012757291086018085" pbc="T T T"
Li       2.23306447      -0.02722631       4.17295592        0       0.83205938       0.05948760       0.32577327       0.13042659       0.02252105       1.21156299
Li       3.42244463       7.36982320       8.67713765        1      -0.46647175      -0.17114242       0.22435724       0.09181588       0.02705769      -0.05246500
Li       5.06147420       8.10451391       2.29932073        2      -0.90914755       0.10137323       0.16454568       0.09392866      -0.14990027      -0.21776122
Li       0.70410118       0.28437200      10.74032252        3       0.62096922       0.64464816       0.10047970      -0.14426063      -0.07876772      -0.01341293
Li       4.11109722       4.01943874       8.77633838        4       0.60171429      -0.44465751      -0.34336011      -0.10954362       0.59697950       0.04235362
Li       2.44039612       3.53696607       4.39436525        5       0.81163273      -0.00197869      -0.31803042       0.15663868       0.32183611      -0.09672093
Li       0.93140710       3.70872285      10.98104596        6      -0.63511958      -0.11381714       0.25713472      -0.02084949      -0.08635207      -0.09748653
Li       5.76755167       4.55393009       2.30913329        7      -0.56824699      -0.48416455       0.28348725       0.13506597      -0.07496771      -0.36194766
Li       2.76331984      -0.49216470      -0.32739376        8       0.38449241       0.70561194      -0.15240306       0.02660238      -0.03249478       0.32331976
Li      -0.52028837       0.29363552       6.70865519        9       0.91707160      -0.37980046       0.37982315       0.26525170       0.20472224       0.12139646
Li       3.36889820       3.64835030       0.10778303       10      -0.62553520       0.01967853      -0.56559387       0.21287188       0.15892191      -0.00451580
Li       0.07127890       4.23390663       6.37747452       11      -0.38802268       0.16866828      -0.46056031       0.01610373      -0.01085388      -0.00719658
P        1.04547631       1.96123512       1.21051685       12      -0.99136186       0.67561543       0.09512883       0.23174939      -0.42726091       0.47042844
P        5.20502116       5.94161272      11.81171799       13      -0.05275531      -0.65431841       0.18657913      -0.45257121       0.66632593       0.13838074
P        3.94775594       6.03327385       5.45796954       14       0.13789235      -1.07363260       0.69810416       0.35587943      -0.94860196      -0.34898075
P        2.09651479       2.19329994       7.55422728       15       0.01472774      -0.33528349      -0.20051758      -0.66986328      -0.40655446       0.57132608
S        5.20847683       2.22271489       1.16081851       16       0.44719533       0.72455272      -0.76427890       0.02664458      -0.21490160       0.36284295
S        1.00928926       5.95193605      11.85766101       17      -0.60268343       1.78939820      -0.12683290       1.58101690       0.09708305      -0.51377475
S        1.94672019       5.85813826       5.54201140       18      -0.45965999      -0.01091861      -0.05980289      -0.08494699       0.47187719      -0.33217269
S        4.12821369       2.08974367       7.62135305       19      -0.63083202      -0.12357733      -0.88598803      -0.02775803      -0.32360369      -0.17904530
S        1.89972205       1.78029500      12.38456147       20      -0.75769012      -1.69374501       0.33667625       0.00683376       0.24201411      -0.83988738
S        4.59943290       6.08247234       0.70490895       21      -0.39516789      -0.51917277       0.15980175      -0.77569747      -0.03621959       0.85595191
S        4.89662140       6.05159611       7.30567655       22      -0.41326349      -1.14341501      -0.03588129      -0.21338978      -0.28224903       0.25891322
S        1.16333442       2.19140732       5.70481652       23      -0.14710905       0.12794236       0.92746183       0.08777516      -0.54675931       0.01240098
S        1.63978666       0.18982710       2.13143564       24       2.69609644       0.48033083      -0.52783994      -0.70724666       0.23685047      -1.20762837
S        4.44226871       7.58888657      10.85725606       25       0.43797435      -0.19181115       1.02111113       0.02915433       0.20369127      -0.10045714
S        4.64310475       7.75486260       4.64562553       26       0.12734078      -0.39736943      -0.01962689      -0.19054812       0.60699266      -0.46023995
S        1.35593673       0.40079544       8.38640085       27       0.87275264       0.15218600      -2.12824796      -0.08725612       0.50868875      -0.01555990
S        4.58797831       4.18160940      11.07789075       28      -0.46075908      -0.69601087       1.52001701      -0.27067780      -0.76057875      -0.30304268
S        1.94719277       3.57736627       2.05757085       29       0.30074247       0.41960974       0.91770942      -0.15978900       0.39395845       0.05351636
S        1.41211373       3.91746217       8.49545187       30      -0.79179728       1.70712653      -0.31134667       0.41024220      -0.56227458       0.06643993
S        4.65018365       4.40600725       4.34693740       31       0.09296155       0.65858598      -0.69787973       0.05639694       0.18281996       0.66346228
