32
Lattice="6.17176593 0.0 0.0 0.0 8.01859859 0.0 0.0 0.0 13.03281824" Properties=species:S:1:pos:R:3:spacegroup_kinds:I:1:momenta:R:3:forces:R:3 spacegroup="P 1" unit_cell=conventional occupancy="_JSON {\"0\": {\"Li\": 1}, \"1\": {\"Li\": 1}, \"2\": {\"Li\": 1}, \"3\": {\"Li\": 1}, \"4\": {\"Li\": 1}, \"5\": {\"Li\": 1}, \"6\": {\"Li\": 1}, \"7\": {\"Li\": 1}, \"8\": {\"Li\": 1}, \"9\": {\"Li\": 1}, \"10\": {\"Li\": 1}, \"11\": {\"Li\": 1}, \"12\": {\"P\": 1}, \"13\": {\"P\": 1}, \"14\": {\"P\": 1}, \"15\": {\"P\": 1}, \"16\": {\"S\": 1}, \"17\": {\"S\": 1}, \"18\": {\"S\": 1}, \"19\": {\"S\": 1}, \"20\": {\"S\": 1}, \"21\": {\"S\": 1}, \"22\": {\"S\": 1}, \"23\": {\"S\": 1}, \"24\": {\"S\": 1}, \"25\": {\"S\": 1}, \"26\": {\"S\": 1}, \"27\": {\"S\": 1}, \"28\": {\"S\": 1}, \"29\": {\"S\": 1}, \"30\": {\"S\": 1}, \"31\": {\"S\": 1}}" energy=-140.31869506835938 free_energy=-140.31869506835938 stress="-0.007170624099671841 -1.98501926007566e-09 2.313217173366411e-09 -1.98501926007566e-09 -0.008259417489171028 -2.0958763613521114e-09 2.313217173366411e-09 -2.0958763613521114e-09 -0.0052662985399365425" pbc="T T T"
Li       2.40329652       0.26860172       4.33400832        0       0.00000000       0.00000000       0.00000000      -0.02603499       0.00549051      -0.00432107
Li       3.76846941       7.74999687       8.69880992        1       0.00000000       0.00000000       0.00000000       0.02603669      -0.00549254       0.00432311
Li       5.48917948       7.74999687       2.18240080        2       0.00000000       0.00000000       0.00000000      -0.02603693      -0.00549056       0.00432331
Li       0.68258645       0.26860172      10.85041744        3       0.00000000       0.00000000       0.00000000       0.02603594       0.00549216      -0.00431960
Li       3.76846941       4.27790102       8.69880992        4       0.00000000       0.00000000       0.00000000       0.02603612       0.00549136       0.00432265
Li       2.40329652       3.74069757       4.33400832        5       0.00000000       0.00000000       0.00000000      -0.02603618      -0.00549164      -0.00432164
Li       0.68258645       3.74069757      10.85041744        6       0.00000000       0.00000000       0.00000000       0.02603613      -0.00549192      -0.00432003
Li       5.48917948       4.27790102       2.18240080        7       0.00000000       0.00000000       0.00000000      -0.02603599       0.00549109       0.00432288
Li       3.08588297       0.00000000       0.00000000        8       0.00000000       0.00000000       0.00000000       0.00000013      -0.00000103      -0.00000005
Li       0.00000000       0.00000000       6.51640912        9       0.00000000       0.00000000       0.00000000      -0.00000010      -0.00000026       0.00000079
Li       3.08588297       4.00929929       0.00000000       10       0.00000000       0.00000000       0.00000000      -0.00000084       0.00000233      -0.00000028
Li       0.00000000       4.00929929       6.51640912       11       0.00000000       0.00000000       0.00000000       0.00000052       0.00000043      -0.00000128
P        0.94051010       2.00464965       1.16601784       12       0.00000000       0.00000000       0.00000000      -0.02067249      -0.00000005       0.02376144
P        5.23125583       6.01394894      11.86680040       13       0.00000000       0.00000000       0.00000000       0.02066586       0.00000122      -0.02375831
P        4.02639307       6.01394894       5.35039128       14       0.00000000       0.00000000       0.00000000      -0.02066805       0.00000220      -0.02375636
P        2.14537286       2.00464965       7.68242696       15       0.00000000       0.00000000       0.00000000       0.02066822      -0.00000046       0.02375746
S        5.08970823       2.00464965       1.30575389       16       0.00000000       0.00000000       0.00000000      -0.25450540       0.00000045       0.01678957
S        1.08205770       6.01394894      11.72706435       17       0.00000000       0.00000000       0.00000000       0.25450751      -0.00000051      -0.01679273
S        2.00382526       6.01394894       5.21065523       18       0.00000000       0.00000000       0.00000000      -0.25450575      -0.00000052      -0.01679137
S        4.16794067       2.00464965       7.82216301       19       0.00000000       0.00000000       0.00000000       0.25450048      -0.00000054       0.01679057
S        1.68132889       2.00464965      12.25955363       20       0.00000000       0.00000000       0.00000000       0.10912266       0.00000029      -0.16719680
S        4.49043704       6.01394894       0.77326461       21       0.00000000       0.00000000       0.00000000      -0.10912042      -0.00000018       0.16718161
S        4.76721186       6.01394894       7.28967373       22       0.00000000       0.00000000       0.00000000       0.10912095      -0.00000046       0.16717917
S        1.40455407       2.00464965       5.74314451       23       0.00000000       0.00000000       0.00000000      -0.10911977       0.00000034      -0.16718137
S        1.67233151       0.29287049       2.00524453       24       0.00000000       0.00000000       0.00000000       0.13957852      -0.21272710       0.08709843
S        4.49943442       7.72572810      11.02757371       25       0.00000000       0.00000000       0.00000000      -0.13957536       0.21272393      -0.08709359
S        4.75821447       7.72572810       4.51116459       26       0.00000000       0.00000000       0.00000000       0.13957566       0.21272528      -0.08709285
S        1.41355146       0.29287049       8.52165365       27       0.00000000       0.00000000       0.00000000      -0.13957566      -0.21272062       0.08709045
S        4.49943442       4.30216979      11.02757371       28       0.00000000       0.00000000       0.00000000      -0.13957793      -0.21272573      -0.08709219
S        1.67233151       3.71642880       2.00524453       29       0.00000000       0.00000000       0.00000000       0.13957871       0.21272565       0.08709899
S        1.41355146       3.71642880       8.52165365       30       0.00000000       0.00000000       0.00000000      -0.13957550       0.21272114       0.08709154
S        4.75821447       4.30216979       4.51116459       31       0.00000000       0.00000000       0.00000000       0.13957727      -0.21272430      -0.08709247
32
Lattice="6.17176593 0.0 0.0 0.0 8.01859859 0.0 0.0 0.0 13.03281824" Properties=species:S:1:pos:R:3:spacegroup_kinds:I:1:momenta:R:3:forces:R:3 spacegroup="P 1" unit_cell=conventional occupancy="_JSON {\"0\": {\"Li\": 1}, \"1\": {\"Li\": 1}, \"2\": {\"Li\": 1}, \"3\": {\"Li\": 1}, \"4\": {\"Li\": 1}, \"5\": {\"Li\": 1}, \"6\": {\"Li\": 1}, \"7\": {\"Li\": 1}, \"8\": {\"Li\": 1}, \"9\": {\"Li\": 1}, \"10\": {\"Li\": 1}, \"11\": {\"Li\": 1}, \"12\": {\"P\": 1}, \"13\": {\"P\": 1}, \"14\": {\"P\": 1}, \"15\": {\"P\": 1}, \"16\": {\"S\": 1}, \"17\": {\"S\": 1}, \"18\": {\"S\": 1}, \"19\": {\"S\": 1}, \"20\": {\"S\": 1}, \"21\": {\"S\": 1}, \"22\": {\"S\": 1}, \"23\": {\"S\": 1}, \"24\": {\"S\": 1}, \"25\": {\"S\": 1}, \"26\": {\"S\": 1}, \"27\": {\"S\": 1}, \"28\": {\"S\": 1}, \"29\": {\"S\": 1}, \"30\": {\"S\": 1}, \"31\": {\"S\": 1}}" energy=-139.8267822265625 free_energy=-139.8267822265625 stress="-0.0032506391871720552 0.000782796589192003 0.0019183834083378315 0.000782796589192003 -0.0029766687657684088 0.001275943242944777 0.0019183834083378315 0.001275943242944777 -0.002659047953784466" pbc="T T T"
Li       2.47749844       0.40512782       4.36627052        0       0.12288233       0.05103333      -0.10651031      -0.17155528       0.00526935      -0.11078205
Li       4.00939395       7.82725290       8.79881075        1       0.13083031       0.24612245       0.28085177      -0.22206128      -0.00246919      -0.32623303
Li       5.33065613       7.86293681       2.06678787        2      -0.03726141      -0.13790262       0.49301947       0.10699560      -0.14471129       0.09074588
Li       0.64139327       0.29267639      10.91774109        3      -0.31987267      -0.45433493      -0.21075060       0.07774910      -0.03072407      -0.13990389
Li       3.64263235       4.35796617       8.78214025        4       0.08386992       0.11178040      -0.13552425       0.19723144       0.00952593      -0.17642257
Li       2.39656020       3.92100215       4.48741593        5      -0.31896203       0.07133944       0.06234119      -0.08011888      -0.55470407      -0.33343250
Li       0.62114003       3.74135191      10.87692048        6      -0.54365193       0.01429843      -0.08510409       0.19562559      -0.12894401      -0.08806421
Li       5.56605621       4.27461441       2.36233397        7       0.03006478       0.36090411       0.56740163       0.12524427       0.10138336      -0.50217390
Li       3.02163755       0.06116194      -0.03899278        8      -0.35996333       0.07782808       0.01763179       0.19247088      -0.18932161      -0.06862546
Li       0.08782784       0.05605958       6.37687102        9      -0.32481140       0.06801936      -0.39914651      -0.12584686      -0.03697630       0.03443354
Li       3.05211006       4.07894191       0.12279555       10       0.06562861      -0.23004189      -0.01923748       0.25918216       0.03597746      -0.43964085
Li       0.06450483       4.27380755       6.58239090       11       0.44046308       0.35791861      -0.71850991       0.10538183      -0.28398058      -0.15292546
P        0.99559494       1.96388356       1.13016313       12       0.13811820      -0.04611024       0.20946717      -0.25092104       0.85707343       0.45207411
P        5.23700712       5.95872336      11.80755263       13       0.04126668      -1.24912999      -1.00308017      -0.41216379      -0.51488769       0.46948415
P        3.95040767       6.00163860       5.38672366       14      -0.41043448      -0.04759196       0.32040934       1.38883328      -0.07749505       0.05085444
P        2.10122510       1.97800670       7.73859341       15      -0.73634655       0.04233695       1.07137241       0.44070077       0.16397342      -0.24123634
S        5.09927018       2.11276356       1.29186538       16       0.67372244       0.69881085       0.32327899       0.56395036      -0.27110043      -0.04868176
S        1.09228071       5.96692193      11.67875328       17       0.03165126      -0.03183877      -1.04902075       0.03461922       0.18444940      -0.04009612
S        1.95698114       6.04051252       5.24892839       18      -1.14086316       0.34144344       0.26251576      -0.70816624       0.33391935       0.16545156
S        4.14189089       2.05778518       7.93476773       19      -0.84603662      -0.12497784       1.03948391      -0.17682253      -0.10034063      -0.09639350
S        1.74830429       2.03733357      12.22488491       20       0.75392197      -0.39632323      -0.00239175      -0.08434012      -0.11423294      -0.07335530
S        4.48481268       5.97376621       0.74905878       21       0.35880935      -0.34126082       0.17804330       0.18437871       0.06252713      -0.25319764
S        4.83732025       6.02327147       7.32648721       22       0.57417677       0.34717224       0.71352892      -0.54800749       0.15419394      -0.38263440
S        1.41461401       2.08749256       5.75256103       23       0.24061548       0.72184502       0.10584344      -0.04063146      -0.09125647       0.04627183
S        1.70342368       0.22021315       1.94068532       24      -0.41676832      -0.44806689      -1.51507435      -0.27606887       0.11678965       0.19754857
S        4.46396715       7.70022898      11.05039774       25       0.55784174       0.05461451       0.06955355       0.04091305       0.09281158       0.03404285
S        4.70205654       7.68234132       4.47357636       26      -0.23912306       0.75581323      -0.40801912       0.19648674       0.15472947       0.05804104
S        1.35969062       0.22831149       8.47314721       27       0.39338249       0.29288360      -0.47631469       0.09834102      -0.01756539       0.22853133
S        4.49409055       4.19116368      10.96824760       28      -0.05014538      -0.59456815      -0.96841586       0.03338946       0.62905717       0.44727677
S        1.79545398       3.71796133       2.00036206       29       1.07590100      -0.55313958      -0.10145441      -0.51658189      -0.65101391       0.22478329
S        1.38762751       3.71799691       8.54856615       30      -0.08524449      -0.11928384       0.44491280      -0.37488616       0.08220160       0.21613093
S        4.73833396       4.29137347       4.48663985       31       0.11633844       0.16040666       1.03889879      -0.25332138       0.22584137       0.75812852
32
Lattice="6.17176593 0.0 0.0 0.0 8.01859859 0.0 0.0 0.0 13.03281824" Properties=species:S:1:pos:R:3:spacegroup_kinds:I:1:momenta:R:3:forces:R:3 spacegroup="P 1" unit_cell=conventional occupancy="_JSON {\"0\": {\"Li\": 1}, \"1\": {\"Li\": 1}, \"2\": {\"Li\": 1}, \"3\": {\"Li\": 1}, \"4\": {\"Li\": 1}, \"5\": {\"Li\": 1}, \"6\": {\"Li\": 1}, \"7\": {\"Li\": 1}, \"8\": {\"Li\": 1}, \"9\": {\"Li\": 1}, \"10\": {\"Li\": 1}, \"11\": {\"Li\": 1}, \"12\": {\"P\": 1}, \"13\": {\"P\": 1}, \"14\": {\"P\": 1}, \"15\": {\"P\": 1}, \"16\": {\"S\": 1}, \"17\": {\"S\": 1}, \"18\": {\"S\": 1}, \"19\": {\"S\": 1}, \"20\": {\"S\": 1}, \"21\": {\"S\": 1}, \"22\": {\"S\": 1}, \"23\": {\"S\": 1}, \"24\": {\"S\": 1}, \"25\": {\"S\": 1}, \"26\": {\"S\": 1}, \"27\": {\"S\": 1}, \"28\": {\"S\": 1}, \"29\": {\"S\": 1}, \"30\": {\"S\": 1}, \"31\": {\"S\": 1}}" energy=-139.4566650390625 free_energy=-139.4566650390625 stress="-0.0047932886518538 -0.0005163660971447825 0.0009063547477126122 -0.0005163660971447825 -0.00397289777174592 -2.008267620112747e-05 0.0009063547477126122 -2.008267620112747e-05 -0.009950779378414154" pbc="T T T"
Li       2.32202235       0.35326175       4.35500263        0      -0.15489513      -0.43095326      -0.29473655       0.00648739      -0.22252885      -0.23047872
Li       3.67558118       7.65974980       8.61068874        1      -0.76631571      -0.16912102      -0.13966908       0.05778461       0.20680518       0.13341990
Li       5.49403282       7.67517871       2.11515905        2      -0.14188770      -0.27475313      -0.02276536      -0.54062498       0.23118277       0.00331189
Li       0.74876727       0.24623077      10.68186116        3       0.24108740      -0.37446796       0.45414495      -0.10087883      -0.10682670       0.37214112
Li       3.78990267       4.40187420       8.57721897        4      -0.04742211       0.04413380      -0.34535271      -0.03998128      -0.12679255       0.14821538
Li       2.42612678       3.76034746       4.26849614        5       0.59890238       0.35903550       0.22389025       0.15857688       0.14890490       0.42582393
Li       0.73906386       3.62283975      10.87124982        6       0.07713017      -0.70230808       0.33582325      -0.21462896       0.01086812      -0.04688263
Li       5.78047929       4.48551647       2.26391488        7      -0.22738292      -0.02722305      -0.08554027      -0.21611799      -0.26373678       0.02647473
Li       2.96432104      -0.34541837      -0.25751576        8      -0.10010021      -1.07920481      -0.50855573      -0.33408517       0.11022482       0.22461316
Li      -0.03433044       0.21401837       6.43046381        9      -0.27207357       0.43859345       0.44389152      -0.06587954       0.01122212      -0.05534845
Li       3.22871534       3.89554353      -0.19200602       10      -0.16013794      -0.32055334       0.27434588      -0.26929557      -0.18524773       0.68605435
Li       0.47189191       4.34559819       6.34875223       11      -0.15879660       0.00016363       0.21373850      -0.17072713       0.01836844       0.01124850
P        1.04983088       1.99697568       1.17150457       12       0.55167444       0.90800423       0.41404572      -1.22875428      -0.74944067      -0.30507660
P        5.16760484       5.95876690      11.76839026       13      -0.24235546       1.30142123      -1.59733836       0.79011261      -1.02281344      -0.55961031
P        3.99889482       6.09350191       5.47248248       14      -0.57396741       0.62729756      -0.66951159      -0.99075675       0.21471450      -0.87707680
P        2.09675338       2.04355807       7.81053212       15       0.59582065       1.20555056       0.13957166      -0.16679557       0.40540776      -0.35721990
S        5.16052516       2.18524873       1.30699351       16      -0.77728736       0.55873065      -0.04192431       0.52862555      -0.11090727       0.10113534
S        1.05616123       5.86496286      11.53369824       17       0.17661196       0.00734620      -0.42265327      -0.19156133       0.42424729       0.21554978
S        1.90747737       6.10407911       5.36363613       18       0.55793060       0.12291618       0.59848761       0.42683604      -0.00004575      -0.10567115
S        4.08024480       2.02849016       8.11890894       19       0.34727760       0.21226515       0.72218872       0.38233009       0.04400903      -0.06773906
S        1.75227920       1.94739540      12.23446565       20      -0.92665102      -0.85927075      -0.54150740       0.14725813      -0.03900610       0.15711832
S        4.52775490       5.94069172       0.68559813       21       0.51350841      -0.26535054       0.62770912      -0.25874627       0.09735330       0.35888314
S        4.86970357       6.17916117       7.26684439       22       0.90008542       1.29521712       0.12381023       0.35819644       0.06830963       1.34592152
S        1.54651778       2.08545750       5.76410463       23       0.59132571      -0.57824421       0.41409751      -0.28386104       0.04799410       0.28765744
S        1.51317962       0.10959952       1.88807707       24       0.02458862      -0.59177266      -0.26384982       0.82637334       0.37746826       0.16953282
S        4.53572029       7.68968571      10.91707577       25      -0.05845153      -0.89102967      -1.33038928      -0.26421839       0.11349456      -0.10729971
S        4.65346534       7.72457482       4.44643245       26      -0.33766989       0.45753058      -0.30570078       0.17987269       0.50064760      -0.10313933
S        1.38048753       0.23659294       8.47641740       27       0.23688564      -0.17942682       0.38208925      -0.31644940       0.18892056      -0.17639264
S        4.41854898       4.13856642      10.97340928       28      -0.56247343      -0.13056800       0.77112342       0.61318266       1.02799118      -0.35500401
S        1.87393108       3.60356239       2.08512950       29       0.77294338       0.17011512       0.53015332       0.29305971       0.32874343      -0.40895379
S        1.27871624       3.83001789       8.54773762       30      -0.18767265      -0.33469170      -1.14932599       0.37539309      -0.70505106      -0.10725553
S        4.68660285       4.37830073       4.73854066       31      -0.49023161      -0.49938190       1.04970953       0.50927293      -1.04448056      -0.80395299
32
Lattice="6.17176593 0.0 0.0 0.0 8.01859859 0.0 0.0 0.0 13.03281824" Properties=species:S:1:pos:R:3:spacegroup_kinds:I:1:momenta:R:3:forces:R:3 spacegroup="P 1" unit_cell=conventional occupancy="_JSON {\"0\": {\"Li\": 1}, \"1\": {\"Li\": 1}, \"2\": {\"Li\": 1}, \"3\": {\"Li\": 1}, \"4\": {\"Li\": 1}, \"5\": {\"Li\": 1}, \"6\": {\"Li\": 1}, \"7\": {\"Li\": 1}, \"8\": {\"Li\": 1}, \"9\": {\"Li\": 1}, \"10\": {\"Li\": 1}, \"11\": {\"Li\": 1}, \"12\": {\"P\": 1}, \"13\": {\"P\": 1}, \"14\": {\"P\": 1}, \"15\": {\"P\": 1}, \"16\": {\"S\": 1}, \"17\": {\"S\": 1}, \"18\": {\"S\": 1}, \"19\": {\"S\": 1}, \"20\": {\"S\": 1}, \"21\": {\"S\": 1}, \"22\": {\"S\": 1}, \"23\": {\"S\": 1}, \"24\": {\"S\": 1}, \"25\": {\"S\": 1}, \"26\": {\"S\": 1}, \"27\": {\"S\": 1}, \"28\": {\"S\": 1}, \"29\": {\"S\": 1}, \"30\": {\"S\": 1}, \"31\": {\"S\": 1}}" energy=-139.50967407226562 free_energy=-139.50967407226562 stress="0.0005870231543667614 0.00015300927043426782 0.00023392951698042452 0.00015300927043426782 -0.004312608391046524 0.00028656935319304466 0.00023392951698042452 0.00028656935319304466 -0.0054236529394984245" pbc="T T T"
Li       2.19587781       0.19363515       4.10040333        0      -0.13650509       0.26625084       0.73998227       0.07892021       0.08594508       0.58378816
Li       3.63283731       7.71458135       8.57949708        1       0.35842043       0.37189915      -0.51263467      -0.09460054       0.16103286       0.08232723
Li       5.08019717       7.99917079       2.04840425        2      -0.48463169       0.42382763      -0.36741190       0.10766819      -0.29038274       0.04682426
Li       0.82816742       0.17865518      10.85911126        3      -0.27101432       0.21752294      -0.32517518      -0.36775059       0.03400945      -0.16880932
Li       3.76019448       4.57546769       8.69413421        4      -0.46643523       0.70354872      -0.19324587      -0.12239322      -0.20459624      -0.05728983
Li       2.24538812       3.79390794       4.49769790        5      -0.64518627       0.49614083      -0.23737909       0.27980530       0.17629349      -0.21590756
Li       0.46283981       3.51041256      10.85569431        6      -0.32080786       0.07428187      -0.19680573       0.64542341      -0.07002419      -0.05961704
Li       5.63017983       4.30242180       2.38217609        7      -0.01341640       0.17256097      -0.16475401       0.11803293       0.11499721      -0.09558947
Li       2.51414186      -0.59268732      -0.29080529        8      -0.38418220      -0.10867389       0.58315537       0.30199695       0.05142786       0.22552271
Li      -0.31943891       0.31761764       6.72370604        9      -0.28059001       0.60252578       0.28538136       0.04989909       0.46369389      -0.31109130
Li       3.24978739       3.83253598       0.17902855       10       1.17712843       0.41162534       0.30872535       0.30846399      -0.00556182      -0.49225855
Li       0.12526528       4.28021059       6.39134767       11       0.06977200      -0.06993833       0.36180062       0.31322134      -0.08155716       0.41564831
P        1.02665292       1.93437714       1.18732996       12       1.41378133       0.50245397       0.41789654       0.19305673       0.40765870      -0.43456325
P        5.17612219       5.93253967      11.78765571       13       0.46635631       0.50531858       1.47137939       0.93419075       0.25042331      -1.03428292
P        3.99996016       6.05118611       5.40120368       14       0.66740843      -0.20752694       0.22229209       0.17983674       1.25573528      -0.43890980
P        2.18143546       2.03824394       7.73500541       15      -0.39032185      -0.66796793      -0.97212154      -0.29404551       0.59732747      -0.05545359
S        5.17624572       2.18904134       1.33574995       16      -0.73184659       0.45602053       0.07147812       0.03678023       0.12659872      -0.12549067
S        1.11191594       5.87533476      11.51390729       17       0.83657473      -1.23797113      -0.09147010      -0.63034236      -0.00730418       0.22602767
S        1.96337460       6.09512498       5.45233611       18       0.71017946      -0.58455565       0.33839541       0.08761401      -0.21939623      -0.15809596
S        4.19563848       2.08807692       8.10634546       19       1.28479949       0.88987922      -1.08516197      -0.12245485      -0.12676114      -0.34021014
S        1.83049539       1.90406875      12.27397173       20       0.51389215       0.58988498       0.26560024      -0.31398958       0.06428257       0.17004955
S        4.58990414       6.01081542       0.69211413       21      -0.49925660      -0.12150510      -0.89792024      -0.35059756      -0.08134630       0.54597688
S        4.90999956       6.26346465       7.28399090       22      -1.26129996      -0.89138094      -0.70322215      -0.21052031      -0.58288443      -0.22354965
S        1.46249417       2.06507091       5.76241854       23      -1.30153624      -0.51708119      -0.45652632      -0.02791521      -0.34841895       0.14095201
S        1.52689274       0.12677150       1.93126232       24      -0.08651122      -1.15309117       0.08724551      -0.07100257      -0.45614785      -0.11257014
S        4.45312971       7.57599911      10.79364965       25       0.54077363      -0.95296952       0.68530729       0.10133945       0.09930600       0.58550787
S        4.59189266       7.86385271       4.38053165       26      -0.90356341      -0.10232575       0.93692811      -0.10599859      -1.05434632       0.75007939
S        1.34092253       0.36785960       8.53116397       27      -0.60509195       0.71094650       0.86294900      -0.03278724      -0.35663930       0.07564237
S        4.47844638       4.21341803      10.93155585       28       0.12887589       0.01128608       0.19100631      -0.53058988      -0.07286572       0.40926075
S        1.97912168       3.55196591       2.07686368       29      -0.59885337      -0.90025446      -0.21012099      -0.57142639      -0.03887466       0.29268193
S        1.34174234       3.75739574       8.51722111       30       1.06886559      -0.34792138      -0.08002261       0.23593639       0.02830776       0.07963946
S        4.69800204       4.27584350       4.66560002       31       0.14422237       0.45718955      -1.33555070      -0.12577140       0.08006790      -0.30623937
32
Lattice="6.17176593 0.0 0.0 0.0 8.01859859 0.0 0.0 0.0 13.03281824" Properties=species:S:1:pos:R:3:spacegroup_kinds:I:1:momenta:R:3:forces:R:3 spacegroup="P 1" unit_cell=conventional occupancy="_JSON {\"0\": {\"Li\": 1}, \"1\": {\"Li\": 1}, \"2\": {\"Li\": 1}, \"3\": {\"Li\": 1}, \"4\": {\"Li\": 1}, \"5\": {\"Li\": 1}, \"6\": {\"Li\": 1}, \"7\": {\"Li\": 1}, \"8\": {\"Li\": 1}, \"9\": {\"Li\": 1}, \"10\": {\"Li\": 1}, \"11\": {\"Li\": 1}, \"12\": {\"P\": 1}, \"13\": {\"P\": 1}, \"14\": {\"P\": 1}, \"15\": {\"P\": 1}, \"16\": {\"S\": 1}, \"17\": {\"S\": 1}, \"18\": {\"S\": 1}, \"19\": {\"S\": 1}, \"20\": {\"S\": 1}, \"21\": {\"S\": 1}, \"22\": {\"S\": 1}, \"23\": {\"S\": 1}, \"24\": {\"S\": 1}, \"25\": {\"S\": 1}, \"26\": {\"S\": 1}, \"27\": {\"S\": 1}, \"28\": {\"S\": 1}, \"29\": {\"S\": 1}, \"30\": {\"S\": 1}, \"31\": {\"S\": 1}}" energy=-139.029296875 free_energy=-139.029296875 stress="-0.01286270935088396 -0.00039116202970035374 0.0014160912251099944 -0.00039116202970035374 -0.003551227506250143 0.0006738488445989788 0.0014160912251099944 0.0006738488445989788 0.002439582021906972" pbc="T T T"
Li       2.03124670       0.07533854       4.66705829        0      -0.34145210      -0.10569075      -0.01035379       0.21676862       0.08238056      -0.54292941
Li       3.54664201       7.80712759       8.42804341        1      -0.02918011      -0.96934367       0.26688031       0.20341581       0.00186067       0.21768749
Li       5.19135928       7.88625471       2.11434874        2       0.57459688       0.06576417       0.16892433      -0.13922127       0.19491476       0.12510091
Li       0.47184775       0.18196814      10.78390328        3       0.23277772       0.14791516      -0.41382721       0.29542178       0.13792561       0.27960545
Li       3.59268756       4.76541000       8.63179157        4       0.63853080      -0.47547713       0.17950174       0.40478224      -0.28536037       0.28354695
Li       2.17762306       3.99452346       4.32759739        5       0.30455682      -0.26139818       0.36950911       0.11107969      -0.47919002       0.07834470
Li       0.96610606       3.49670120      10.71274326        6       0.55423833       0.13724119       0.16309845      -0.37452179       0.15503120       0.42804104
Li       5.80977568       4.48308206       2.19486324        7       0.64648706       0.34934121      -0.16887885      -0.04181930       0.03324574       0.04304370
Li       2.48447251      -0.64037328      -0.01566633        8       0.45256406      -0.33886679      -0.51806202       0.17910683       0.01998529      -0.08865380
Li      -0.42954196       0.61453895       6.64411999        9      -0.26747454       0.05282406      -0.18283311      -0.23392183      -0.16956656       0.01154057
Li       3.80838221       3.75681723       0.18453792       10       0.05983519      -0.60188428       0.08007416      -0.36997026      -0.06097232       0.09255421
Li       0.09439926       4.16828992       6.68585569       11      -0.13911497       0.19128754      -0.10907350      -0.08512735       0.06986801      -0.25975329
P        1.07054874       1.91458072       1.09477905       12      -0.38860728      -0.57736611       1.38064625       1.63416982      -0.02719211       0.79631883
P        5.30102890       5.94950694      11.78673002       13      -1.97423559       0.80344879       0.27070854      -0.73998833       0.21882585       0.45710748
P        4.08397869       6.03381456       5.37266064       14      -0.38738669      -1.78679386       0.07102796      -0.44328529       0.11869444      -0.04902181
P        2.08999487       2.02644353       7.64183573       15      -0.88002675      -0.99569655       0.06250860      -0.16296583       0.77025318       0.04411267
S        5.32814927       2.21439062       1.27859402       16      -0.29396210      -0.31025683      -0.45456038      -2.13877988       0.08209469      -0.00006317
S        1.16860408       5.78625554      11.63837318       17       1.51156645       0.18853586       1.69693287      -0.31469733       0.61471528       0.02792417
S        2.01807026       5.97440953       5.49652960       18      -1.05403711      -0.77925975       0.60814709      -0.06901447      -0.04997943       0.30656037