32
Lattice="6.17176593 0.0 0.0 0.0 8.01859859 0.0 0.0 0.0 13.03281824" Properties=species:S:1:pos:R:3:spacegroup_kinds:I:1:forces:R:3 spacegroup="P 1" unit_cell=conventional occupancy="_JSON {\"0\": {\"Li\": 1}, \"1\": {\"Li\": 1}, \"2\": {\"Li\": 1}, \"3\": {\"Li\": 1}, \"4\": {\"Li\": 1}, \"5\": {\"Li\": 1}, \"6\": {\"Li\": 1}, \"7\": {\"Li\": 1}, \"8\": {\"Li\": 1}, \"9\": {\"Li\": 1}, \"10\": {\"Li\": 1}, \"11\": {\"Li\": 1}, \"12\": {\"P\": 1}, \"13\": {\"P\": 1}, \"14\": {\"P\": 1}, \"15\": {\"P\": 1}, \"16\": {\"S\": 1}, \"17\": {\"S\": 1}, \"18\": {\"S\": 1}, \"19\": {\"S\": 1}, \"20\": {\"S\": 1}, \"21\": {\"S\": 1}, \"22\": {\"S\": 1}, \"23\": {\"S\": 1}, \"24\": {\"S\": 1}, \"25\": {\"S\": 1}, \"26\": {\"S\": 1}, \"27\": {\"S\": 1}, \"28\": {\"S\": 1}, \"29\": {\"S\": 1}, \"30\": {\"S\": 1}, \"31\": {\"S\": 1}}" energy=-140.31869506835938 free_energy=-140.31869506835938 stress="-0.007170624099671841 -1.98501926007566e-09 2.313217173366411e-09 -1.98501926007566e-09 -0.008259417489171028 -2.0958763613521114e-09 2.313217173366411e-09 -2.0958763613521114e-09 -0.0052662985399365425" pbc="T T T"
Li       2.40329652       0.26860172       4.33400832        0      -0.02603499       0.00549051      -0.00432107
Li       3.76846941       7.74999687       8.69880992        1       0.02603669      -0.00549254       0.00432311
Li       5.48917948       7.74999687       2.18240080        2      -0.02603693      -0.00549056       0.00432331
Li       0.68258645       0.26860172      10.85041744        3       0.02603594       0.00549216      -0.00431960
Li       3.76846941       4.27790102       8.69880992        4       0.02603612       0.00549136       0.00432265
Li       2.40329652       3.74069757       4.33400832        5      -0.02603618      -0.00549164      -0.00432164
Li       0.68258645       3.74069757      10.85041744        6       0.02603613      -0.00549192      -0.00432003
Li       5.48917948       4.27790102       2.18240080        7      -0.02603599       0.00549109       0.00432288
Li       3.08588297       0.00000000       0.00000000        8       0.00000013      -0.00000103      -0.00000005
Li       0.00000000       0.00000000       6.51640912        9      -0.00000010      -0.00000026       0.00000079
Li       3.08588297       4.00929929       0.00000000       10      -0.00000084       0.00000233      -0.00000028
Li       0.00000000       4.00929929       6.51640912       11       0.00000052       0.00000043      -0.00000128
P        0.94051010       2.00464965       1.16601784       12      -0.02067249      -0.00000005       0.02376144
P        5.23125583       6.01394894      11.86680040       13       0.02066586       0.00000122      -0.02375831
P        4.02639307       6.01394894       5.35039128       14      -0.02066805       0.00000220      -0.02375636
P        2.14537286       2.00464965       7.68242696       15       0.02066822      -0.00000046       0.02375746
S        5.08970823       2.00464965       1.30575389       16      -0.25450540       0.00000045       0.01678957
S        1.08205770       6.01394894      11.72706435       17       0.25450751      -0.00000051      -0.01679273
S        2.00382526       6.01394894       5.21065523       18      -0.25450575      -0.00000052      -0.01679137
S        4.16794067       2.00464965       7.82216301       19       0.25450048      -0.00000054       0.01679057
S        1.68132889       2.00464965      12.25955363       20       0.10912266       0.00000029      -0.16719680
S        4.49043704       6.01394894       0.77326461       21      -0.10912042      -0.00000018       0.16718161
S        4.76721186       6.01394894       7.28967373       22       0.10912095      -0.00000046       0.16717917
S        1.40455407       2.00464965       5.74314451       23      -0.10911977       0.00000034      -0.16718137
S        1.67233151       0.29287049       2.00524453       24       0.13957852      -0.21272710       0.08709843
S        4.49943442       7.72572810      11.02757371       25      -0.13957536       0.21272393      -0.08709359
S        4.75821447       7.72572810       4.51116459       26       0.13957566       0.21272528      -0.08709285
S        1.41355146       0.29287049       8.52165365       27      -0.13957566      -0.21272062       0.08709045
S        4.49943442       4.30216979      11.02757371       28      -0.13957793      -0.21272573      -0.08709219
S        1.67233151       3.71642880       2.00524453       29       0.13957871       0.21272565       0.08709899
S        1.41355146       3.71642880       8.52165365       30      -0.13957550       0.21272114       0.08709154
S        4.75821447       4.30216979       4.51116459       31       0.13957727      -0.21272430      -0.08709247
