32
Lattice="6.17176593 0.0 0.0 0.0 8.01859859 0.0 0.0 0.0 13.03281824" Properties=species:S:1:pos:R:3:spacegroup_kinds:I:1:forces:R:3 spacegroup="P 1" unit_cell=conventional occupancy="_JSON {\"0\": {\"Li\": 1}, \"1\": {\"Li\": 1}, \"2\": {\"Li\": 1}, \"3\": {\"Li\": 1}, \"4\": {\"Li\": 1}, \"5\": {\"Li\": 1}, \"6\": {\"Li\": 1}, \"7\": {\"Li\": 1}, \"8\": {\"Li\": 1}, \"9\": {\"Li\": 1}, \"10\": {\"Li\": 1}, \"11\": {\"Li\": 1}, \"12\": {\"P\": 1}, \"13\": {\"P\": 1}, \"14\": {\"P\": 1}, \"15\": {\"P\": 1}, \"16\": {\"S\": 1}, \"17\": {\"S\": 1}, \"18\": {\"S\": 1}, \"19\": {\"S\": 1}, \"20\": {\"S\": 1}, \"21\": {\"S\": 1}, \"22\": {\"S\": 1}, \"23\": {\"S\": 1}, \"24\": {\"S\": 1}, \"25\": {\"S\": 1}, \"26\": {\"S\": 1}, \"27\": {\"S\": 1}, \"28\": {\"S\": 1}, \"29\": {\"S\": 1}, \"30\": {\"S\": 1}, \"31\": {\"S\": 1}}" energy=-140.3463134765625 free_energy=-140.3463134765625 stress="-0.0028885737992823124 -1.4394894165548067e-08 -3.450476881994291e-08 -1.4394894165548067e-08 -0.004072246607393026 3.98881594421141e-09 -3.450476881994291e-08 3.98881594421141e-09 -0.0025936022866517305" pbc="T T T"
Li       2.40166813       0.26892249       4.33377960        0      -0.01549015       0.00236158       0.00063182
Li       3.77009790       7.74967602       8.69903846        1       0.01548874      -0.00236191      -0.00063120
Li       5.48755106       7.74967602       2.18262939        2      -0.01549195      -0.00235950      -0.00063317
Li       0.68421474       0.26892248      10.85018871        3       0.01549099       0.00236139       0.00063369
Li       3.77009794       4.27822190       8.69903851        4       0.01548781       0.00235916      -0.00063279
Li       2.40166816       3.74037678       4.33377960        5      -0.01548943      -0.00236072       0.00063331
Li       0.68421475       3.74037682      10.85018871        6       0.01549081      -0.00235971       0.00063224
Li       5.48755102       4.27822189       2.18262938        7      -0.01549254       0.00236051      -0.00063130
Li       3.08588290      -0.00000005       0.00000006        8      -0.00000069       0.00000126       0.00000105
Li      -0.00000001      -0.00000000       6.51640917        9       0.00000077      -0.00000036      -0.00000136
Li       3.08588292       4.00929937       0.00000006       10      -0.00000150      -0.00000111       0.00000114
Li       0.00000003       4.00929932       6.51640914       11       0.00000055      -0.00000185      -0.00000219
P        0.93932960       2.00464960       1.16793478       12      -0.00067304       0.00000031       0.03303524
P        5.23243638       6.01394891      11.86488437       13       0.00067028      -0.00000087      -0.03306047
P        4.02521220       6.01394890       5.34847531       14      -0.00065075      -0.00000005      -0.03306039
P        2.14655389       2.00464964       7.68434322       15       0.00064594       0.00000034       0.03304889
S        5.07612345       2.00464962       1.30682512       16       0.00280608       0.00000041       0.01274896
S        1.09564257       6.01394897      11.72599301       17      -0.00280806      -0.00000151      -0.01274509
S        1.99024089       6.01394893       5.20958388       18       0.00279419       0.00000166      -0.01274556
S        4.18152508       2.00464971       7.82323419       19      -0.00279548       0.00000127       0.01274887
S        1.68772177       2.00464966      12.25093559       20       0.03397109      -0.00000030       0.02524823
S        4.48404411       6.01394892       0.78188262       21      -0.03397351      -0.00000007      -0.02523416
S        4.77360477       6.01394895       7.29829153       22       0.03397188       0.00000023      -0.02523730
S        1.39816133       2.00464964       5.73452687       23      -0.03397060      -0.00000057       0.02524581
S        1.68016700       0.28147976       2.00960395       24       0.02273407      -0.00259173      -0.01692171
S        4.49159895       7.73711943      11.02321397       25      -0.02272945       0.00258542       0.01692542
S        4.76604993       7.73711929       4.50680508       26       0.02272746       0.00258102       0.01692747
S        1.40571574       0.28147951       8.52601315       27      -0.02272298      -0.00258103      -0.01693079
S        4.49159890       4.29077842      11.02321405       28      -0.02272971      -0.00258632       0.01692499
S        1.68016708       3.72781960       2.00960395       29       0.02273349       0.00259070      -0.01692102
S        1.40571574       3.72781981       8.52601314       30      -0.02272367       0.00258355      -0.01692838
S        4.76605003       4.29077854       4.50680505       31       0.02272906      -0.00258125       0.01692979
