4
Lattice="3.128588 0.0 0.0 -1.5642939988088433 2.709436998432005 0.0 0.0 0.0 5.016955" Properties=species:S:1:pos:R:3:spacegroup_kinds:I:1:momenta:R:3:forces:R:3 spacegroup="P 1" unit_cell=conventional occupancy="_JSON {\"0\": {\"Al\": 1}, \"1\": {\"Al\": 1}, \"2\": {\"N\": 1}, \"3\": {\"N\": 1}}" energy=-29.62374496459961 free_energy=-29.62374496459961 stress="0.004300334490835667 -0.008672582916915417 0.0028819337021559477 -0.008672582916915417 -0.006943720858544111 -0.004434577189385891 0.0028819337021559477 -0.004434577189385891 -0.01483922079205513" pbc="T T T"
Al       1.54321204       0.89379621       2.53645981        0      -0.00705463      -0.41529146       0.79445046      -0.25249931       0.39302987      -0.87834537
Al       0.03580900       1.79893950       4.98957809        1       0.09337951      -0.29525154      -0.61191968      -0.16601156       0.14057969       0.62745142
N        1.59619758       0.90645098       4.40111846        2      -0.02189853       1.09350696       0.27120799      -0.08899733      -0.09593584       0.34911180
N       -0.05911260       1.83464205       1.91219261        3      -0.06442634      -0.38296393      -0.45373873       0.50750822      -0.43767375      -0.09821788
