4
Lattice="3.128588 0.0 0.0 -1.5642939988088433 2.709436998432005 0.0 0.0 0.0 5.016955" Properties=species:S:1:pos:R:3:spacegroup_kinds:I:1:momenta:R:3:forces:R:3 spacegroup="P 1" unit_cell=conventional occupancy="_JSON {\"0\": {\"Al\": 1}, \"1\": {\"Al\": 1}, \"2\": {\"N\": 1}, \"3\": {\"N\": 1}}" energy=-29.673717498779297 free_energy=-29.673717498779297 stress="-0.002225517528131604 -1.3349009577723336e-06 -1.7312597577756605e-08 -1.3349009577723336e-06 -0.00222771312110126 -1.4506968071259507e-08 -1.7312597577756605e-08 -1.4506968071259507e-08 -0.005453819874674082" pbc="T T T"
Al       1.56429556       0.90314476       2.50490041        0       0.68448204       0.53670047       0.91071479      -0.00003488       0.00002130       0.00553229
Al      -0.00000156       1.80629224       5.01337791        1       0.31075784       0.39520501      -1.87833745       0.00003401      -0.00002052       0.00552358
N        1.56429556       0.90314476       4.41849749        2      -0.23293981      -0.79739853      -0.40745139      -0.00003576       0.00002096      -0.00553041
N       -0.00000156       1.80629224       1.91001999        3      -0.76230006      -0.13450696       1.37507406       0.00003671      -0.00002182      -0.00552506
4
Lattice="3.128588 0.0 0.0 -1.5642939988088433 2.709436998432005 0.0 0.0 0.0 5.016955" Properties=species:S:1:pos:R:3:spacegroup_kinds:I:1:momenta:R:3:forces:R:3 spacegroup="P 1" unit_cell=conventional occupancy="_JSON {\"0\": {\"Al\": 1}, \"1\": {\"Al\": 1}, \"2\": {\"N\": 1}, \"3\": {\"N\": 1}}" energy=-29.43359375 free_energy=-29.43359375 stress="-0.013773467391729355 -0.016446467489004135 0.012948822230100632 -0.016446467489004135 -0.02396874502301216 0.009969750419259071 0.012948822230100632 0.009969750419259071 -0.012059370055794716" pbc="T T T"
Al       1.60246141       0.92231284       2.54150849        0       0.57498209      -0.13491977       1.02882483      -1.31301343      -0.49033499      -0.87831295
Al       0.00328789       1.81111139       4.94718774        1      -0.44725791       0.00118061      -1.07867314      -0.30154163      -0.59423214       1.18011880
N        1.53678587       0.85870780       4.38099594        2       0.14052020      -0.46066730       0.20203863       0.28490752       0.67984486       1.25553596
N       -0.05228245       1.80432669       2.00436659        3      -0.26824439       0.59440646      -0.15219035       1.32964730       0.40472209      -1.55734205
4
Lattice="3.128588 0.0 0.0 -1.5642939988088433 2.709436998432005 0.0 0.0 0.0 5.016955" Properties=species:S:1:pos:R:3:spacegroup_kinds:I:1:momenta:R:3:forces:R:3 spacegroup="P 1" unit_cell=conventional occupancy="_JSON {\"0\": {\"Al\": 1}, \"1\": {\"Al\": 1}, \"2\": {\"N\": 1}, \"3\": {\"N\": 1}}" energy=-29.567256927490234 free_energy=-29.567256927490234 stress="0.01291580218821764 0.0017025552224367857 0.003579397452995181 0.0017025552224367857 -0.025856908410787582 -0.005369145423173904 0.003579397452995181 -0.005369145423173904 -0.011435147374868393" pbc="T T T"
Al       1.59598186       0.90138487       2.55101265        0      -0.85003975      -0.64755168      -0.41676325      -0.33522552       0.74370468      -1.26921225
Al      -0.01311799       1.79082858       4.96769658        1      -0.24557014      -0.74327799       1.65595811      -0.18280220      -0.17026798       1.21499538
N        1.52960406       0.86779350       4.41996341        2       0.16413051       0.60763570       0.63654573       0.31887633       0.39321464      -0.09056863
N       -0.00060095       1.87475187       1.90756518        3       0.93147939       0.78319395      -1.87574063       0.19915125      -0.96665150       0.14478526
4
Lattice="3.128588 0.0 0.0 -1.5642939988088433 2.709436998432005 0.0 0.0 0.0 5.016955" Properties=species:S:1:pos:R:3:spacegroup_kinds:I:1:momenta:R:3:forces:R:3 spacegroup="P 1" unit_cell=conventional occupancy="_JSON {\"0\": {\"Al\": 1}, \"1\": {\"Al\": 1}, \"2\": {\"N\": 1}, \"3\": {\"N\": 1}}" energy=-29.406272888183594 free_energy=-29.406272888183594 stress="0.010688628070056438 0.016498150303959846 -0.008163992315530777 0.016498150303959846 -0.009423394687473774 -0.015553981065750122 -0.008163992315530777 -0.015553981065750122 -0.06125413998961449" pbc="T T T"
Al       1.53423929       0.87298461       2.51007450        0      -1.60925370       0.09619190      -1.03262329       0.74608719       1.00298643       0.03482363
Al      -0.01349004       1.78470221       5.05709166        1       0.21561183      -0.04339811       1.72443250       0.02271235       0.40732974      -1.66436875
N        1.55208975       0.92225132       4.42203509        2       0.38659446       0.63935818      -0.93002924       0.04495824      -0.39009777      -0.56986135
N        0.09667396       1.88681818       1.81230437        3       1.00704742      -0.69215205       0.23822000      -0.81375790      -1.02021873       2.19940615
4
Lattice="3.128588 0.0 0.0 -1.5642939988088433 2.709436998432005 0.0 0.0 0.0 5.016955" Properties=species:S:1:pos:R:3:spacegroup_kinds:I:1:momenta:R:3:forces:R:3 spacegroup="P 1" unit_cell=conventional occupancy="_JSON {\"0\": {\"Al\": 1}, \"1\": {\"Al\": 1}, \"2\": {\"N\": 1}, \"3\": {\"N\": 1}}" energy=-29.201902389526367 free_energy=-29.201902389526367 stress="-0.02644091099500656 0.038155630230903625 -0.031382445245981216 0.038155630230903625 -0.004877652507275343 0.0015437674010172486 -0.031382445245981216 0.0015437674010172486 -0.051820043474435806" pbc="T T T"
Al       1.49382403       0.87740194       2.48150487        0      -0.08661663      -0.02748755       0.25595558       2.48428082      -0.46186712       1.22611713
Al      -0.02076739       1.79337850       5.08843296        1       0.00716701       0.60209070      -1.27068276       0.64723176       0.57433581      -2.36004066
N        1.60157227       0.96971684       4.33361320        2       0.49437306       0.53651015      -0.17473391      -0.53882563      -0.70145488       1.74608898
N        0.13924905       1.81421452       1.89535168        3      -0.41492340      -1.11111340       1.18946111      -2.59268737       0.58898640      -0.61216545
4
Lattice="3.128588 0.0 0.0 -1.5642939988088433 2.709436998432005 0.0 0.0 0.0 5.016955" Properties=species:S:1:pos:R:3:spacegroup_kinds:I:1:momenta:R:3:forces:R:3 spacegroup="P 1" unit_cell=conventional occupancy="_JSON {\"0\": {\"Al\": 1}, \"1\": {\"Al\": 1}, \"2\": {\"N\": 1}, \"3\": {\"N\": 1}}" energy=-29.574626922607422 free_energy=-29.574626922607422 stress="-0.023618023842573166 -0.014321374706923962 -0.011127938516438007 -0.014321374706923962 0.015030148439109325 -0.002854681108146906 -0.011127938516438007 -0.002854681108146906 -0.014440450817346573" pbc="T T T"
Al       1.53421963       0.88369271       2.53780582        0       1.55944057       0.36820832       1.55971079       0.29264134      -0.24000409      -0.91367865
Al      -0.00048009       1.82107762       4.98837342        1       1.01688614       0.86374321      -2.47525479       0.94369626       0.52251601       0.78486639
N        1.63583970       0.96584648       4.40663184        2      -0.31021959      -0.52489328       1.27117398      -1.15103853      -0.78907216       0.05687793
N       -0.01177521       1.75252279       1.90648731        3      -2.26610708      -0.70705837      -0.35562996      -0.08529912       0.50656027       0.07193418
4
Lattice="3.128588 0.0 0.0 -1.5642939988088433 2.709436998432005 0.0 0.0 0.0 5.016955" Properties=species:S:1:pos:R:3:spacegroup_kinds:I:1:momenta:R:3:forces:R:3 spacegroup="P 1" unit_cell=conventional occupancy="_JSON {\"0\": {\"Al\": 1}, \"1\": {\"Al\": 1}, \"2\": {\"N\": 1}, \"3\": {\"N\": 1}}" energy=-29.372074127197266 free_energy=-29.372074127197266 stress="-0.005629819352179766 -0.018719399347901344 0.015849485993385315 -0.018719399347901344 -0.03227294608950615 0.017212243750691414 0.015849485993385315 0.017212243750691414 -0.007298144046217203" pbc="T T T"
Al       1.57072836       0.88046441       2.56331978        0      -0.00039214      -0.37629551      -0.57844058      -1.34386456      -0.44065952      -1.50707555
Al       0.05055070       1.86456079       4.94968568        1       0.52727035       0.77034156       1.04960181      -0.49129170      -1.36433744       1.82584774
N        1.58204799       0.88176659       4.44992391        2      -0.27832277      -1.02263372      -0.55459278       0.15003870       1.16376150      -0.85894901
N       -0.12661085       1.75915457       1.88869864        3      -0.24855540       0.62858757       0.08343155       1.68511748       0.64123547       0.54017633
4
Lattice="3.128588 0.0 0.0 -1.5642939988088433 2.709436998432005 0.0 0.0 0.0 5.016955" Properties=species:S:1:pos:R:3:spacegroup_kinds:I:1:momenta:R:3:forces:R:3 spacegroup="P 1" unit_cell=conventional occupancy="_JSON {\"0\": {\"Al\": 1}, \"1\": {\"Al\": 1}, \"2\": {\"N\": 1}, \"3\": {\"N\": 1}}" energy=-29.596923828125 free_energy=-29.596923828125 stress="0.015976348891854286 -0.004505954682826996 0.006018653977662325 -0.004505954682826996 -0.025499379262328148 -0.004597129765897989 0.006018653977662325 -0.004597129765897989 -0.01001391839236021" pbc="T T T"
Al       1.53284809       0.86390065       2.51395078        0      -1.59464525      -0.16469655      -1.74991357      -0.27820596       0.89915884      -0.15420592
Al       0.06317842       1.83227864       5.00948379        1       0.38440030      -1.80666618       1.59449979      -0.58708525      -0.41271514       0.16725168
N        1.58572475       0.89623785       4.41422577        2       0.14193155       1.12964950      -0.09119169       0.25704247       0.38076538       0.00228125
N       -0.08152106       1.83862422       1.90381442        3       1.06831340       0.84171311       0.24660551       0.60824877      -0.86720908      -0.01532703
4
Lattice="3.128588 0.0 0.0 -1.5642939988088433 2.709436998432005 0.0 0.0 0.0 5.016955" Properties=species:S:1:pos:R:3:spacegroup_kinds:I:1:momenta:R:3:forces:R:3 spacegroup="P 1" unit_cell=conventional occupancy="_JSON {\"0\": {\"Al\": 1}, \"1\": {\"Al\": 1}, \"2\": {\"N\": 1}, \"3\": {\"N\": 1}}" energy=-29.46255111694336 free_energy=-29.46255111694336 stress="-0.005697223357856274 0.010849514044821262 -0.003906593192368746 0.010849514044821262 -0.0191339123994112 -0.012703190557658672 -0.003906593192368746 -0.012703190557658672 -0.011871465481817722" pbc="T T T"
Al       1.48347331       0.88264394       2.44527931        0      -0.30454544       1.01149533      -0.60004524       0.88393223       0.95768249       1.70777035
Al       0.06164410       1.77681259       5.07306071        1      -0.86715277      -0.75617381       0.43048911      -0.30080625       0.71655381      -1.72280025
N        1.61717708       0.94947182       4.40498425        2       0.38645883       0.04830089       0.18623268      -0.07233991      -0.67486042       0.48910722
N       -0.01486930       1.85626146       1.92266699        3       0.78523937      -0.30362253      -0.01667649      -0.51078618      -0.99937570      -0.47407717
4
Lattice="3.128588 0.0 0.0 -1.5642939988088433 2.709436998432005 0.0 0.0 0.0 5.016955" Properties=species:S:1:pos:R:3:spacegroup_kinds:I:1:momenta:R:3:forces:R:3 spacegroup="P 1" unit_cell=conventional occupancy="_JSON {\"0\": {\"Al\": 1}, \"1\": {\"Al\": 1}, \"2\": {\"N\": 1}, \"3\": {\"N\": 1}}" energy=-29.51875114440918 free_energy=-29.51875114440918 stress="-0.023370815441012383 0.0065399836748838425 -0.016098259016871452 0.0065399836748838425 0.006697540637105703 -0.0004823716008104384 -0.016098259016871452 -0.0004823716008104384 -0.02216128446161747" pbc="T T T"
Al       1.50607639       0.94974319       2.46463697        0       1.15921330       0.62635207       1.50689885       1.24247622      -0.60704589       1.15697372
Al       0.01335468       1.75088039       5.06242874        1      -0.91112052       0.14825217      -0.88962614       0.51474673       0.69610620      -1.43088889
N        1.62637959       0.90489619       4.42127854        2      -0.14223492      -0.64065007       0.21498370      -0.71771884      -0.51824236      -0.07984854
N        0.02538011       1.82158360       1.88963027        3      -0.10585788      -0.13395421      -0.83225643      -1.03950429       0.42918211       0.35376367
4
Lattice="3.128588 0.0 0.0 -1.5642939988088433 2.709436998432005 0.0 0.0 0.0 5.016955" Properties=species:S:1:pos:R:3:spacegroup_kinds:I:1:momenta:R:3:forces:R:3 spacegroup="P 1" unit_cell=conventional occupancy="_JSON {\"0\": {\"Al\": 1}, \"1\": {\"Al\": 1}, \"2\": {\"N\": 1}, \"3\": {\"N\": 1}}" energy=-29.60500717163086 free_energy=-29.60500717163086 stress="0.0015958206495270133 -0.00678590452298522 -0.0030955318361520767 -0.00678590452298522 0.0017804537201300263 0.001724341418594122 -0.0030955318361520767 0.001724341418594122 -0.023113718256354332" pbc="T T T"
Al       1.56693927       0.93861029       2.54470909        0       1.44875347      -0.98943863       1.48437404      -0.01659365      -0.29131636      -1.20300686
Al      -0.01304572       1.78057344       4.99752453        1       0.01689835       1.11024961      -1.70730004       0.38438910       0.02358148       0.50760329
N        1.58384206       0.87104972       4.42155571        2      -0.67927506      -0.02704938      -0.19037128      -0.39237094       0.15178001      -0.39792401
N        0.00122210       1.81989277       1.85992054        3      -0.78637674      -0.09376167       0.41329721       0.02457569       0.11595497       1.09332752
4
Lattice="3.128588 0.0 0.0 -1.5642939988088433 2.709436998432005 0.0 0.0 0.0 5.016955" Properties=species:S:1:pos:R:3:spacegroup_kinds:I:1:momenta:R:3:forces:R:3 spacegroup="P 1" unit_cell=conventional occupancy="_JSON {\"0\": {\"Al\": 1}, \"1\": {\"Al\": 1}, \"2\": {\"N\": 1}, \"3\": {\"N\": 1}}" energy=-29.470203399658203 free_energy=-29.470203399658203 stress="0.00320315919816494 -0.017801715061068535 0.01183833833783865 -0.017801715061068535 -0.0413491316139698 0.00735979899764061 0.01183833833783865 0.00735979899764061 -0.00516033498570323" pbc="T T T"
Al       1.62755630       0.89950075       2.54516752        0       1.04970774      -0.99981893      -0.80202934      -1.41064107       0.15933414      -0.91779310
Al      -0.00757058       1.81703571       4.95606285        1      -0.03757923       0.11959898      -0.16512814      -0.26242685      -0.84351754       1.41445935
N        1.52756232       0.85151203       4.42065486        2      -0.42752247       0.29023008      -0.07965719       0.31765646       0.98894954      -0.00115511
N       -0.06966666       1.84442113       1.93994532        3      -0.58460602       0.58998982       1.04681462       1.35541177      -0.30476618      -0.49551117
4
Lattice="3.128588 0.0 0.0 -1.5642939988088433 2.709436998432005 0.0 0.0 0.0 5.016955" Properties=species:S:1:pos:R:3:spacegroup_kinds:I:1:momenta:R:3:forces:R:3 spacegroup="P 1" unit_cell=conventional occupancy="_JSON {\"0\": {\"Al\": 1}, \"1\": {\"Al\": 1}, \"2\": {\"N\": 1}, \"3\": {\"N\": 1}}" energy=-29.452985763549805 free_energy=-29.452985763549805 stress="-0.013225060887634754 -0.023750100284814835 0.00791135709732771 -0.023750100284814835 -0.047931935638189316 -0.007333272136747837 0.00791135709732771 -0.007333272136747837 0.02863285318017006" pbc="T T T"
Al       1.63184042       0.85684026       2.46693550        0      -0.97589110      -0.55899510      -1.34838355      -1.39010513       1.11026525       1.17303491
Al      -0.02377743       1.82170282       4.98999598        1      -0.28018799       0.45883573       1.28013505      -0.08532397       0.08283440       0.34697786
N        1.52792693       0.92957746       4.44479005        2       0.11446475       0.97873189       0.08012533       0.22036049      -0.17398727       0.05598935
N       -0.04718871       1.83921500       2.00086010        3       1.14161432      -0.87857257      -0.01187693       1.25506854      -1.01911259      -1.57600200
4
Lattice="3.128588 0.0 0.0 -1.5642939988088433 2.709436998432005 0.0 0.0 0.0 5.016955" Properties=species:S:1:pos:R:3:spacegroup_kinds:I:1:momenta:R:3:forces:R:3 spacegroup="P 1" unit_cell=conventional occupancy="_JSON {\"0\": {\"Al\": 1}, \"1\": {\"Al\": 1}, \"2\": {\"N\": 1}, \"3\": {\"N\": 1}}" energy=-29.536317825317383 free_energy=-29.536317825317383 stress="-0.019857514649629593 0.013829050585627556 -0.005717363674193621 0.013829050585627556 -0.0031639898661524057 -0.001671010279096663 -0.005717363674193621 -0.001671010279096663 -0.006260544992983341" pbc="T T T"
Al       1.56291506       0.86348346       2.43836896        0      -1.44558878       0.38889104       0.34074935       0.67285931       0.11609513       1.45909488
Al      -0.01834141       1.83613137       5.05736568        1       0.19731476      -0.00921560       1.04742104       0.06595180       0.15003735      -1.19267356
N        1.54726696       0.95741143       4.47045640        2      -0.01023942       0.05685049       0.14844059       0.09761457      -0.44421020      -0.65174544
N        0.05576968       1.77068660       1.90062730        3       1.25851342      -0.43652598      -1.53661098      -0.83642554       0.17807809       0.38532409
4
Lattice="3.128588 0.0 0.0 -1.5642939988088433 2.709436998432005 0.0 0.0 0.0 5.016955" Properties=species:S:1:pos:R:3:spacegroup_kinds:I:1:momenta:R:3:forces:R:3 spacegroup="P 1" unit_cell=conventional occupancy="_JSON {\"0\": {\"Al\": 1}, \"1\": {\"Al\": 1}, \"2\": {\"N\": 1}, \"3\": {\"N\": 1}}" energy=-29.5310001373291 free_energy=-29.5310001373291 stress="-0.018293896690011024 0.01570757105946541 -0.011607712134718895 0.01570757105946541 0.003147926414385438 0.00460563600063324 -0.011607712134718895 0.00460563600063324 -0.01725885272026062" pbc="T T T"
Al       1.54701073       0.87273543       2.46070914        0       0.71855761      -0.11584396       0.49435382       1.07476938      -0.28505671       1.06925440
Al      -0.01761627       1.84389393       5.05391119        1       0.19346431       0.17720389      -0.69190122       0.23187664      -0.07941882      -1.16824996
N        1.56395355       0.94331120       4.45961401        2       0.32487454      -0.12409389      -0.51346199      -0.11547101      -0.20503303      -0.72920275
N        0.06831350       1.75176763       1.87546337        3      -1.23689646       0.06273396       0.71100936      -1.19117510       0.56950891       0.82819819
4
Lattice="3.128588 0.0 0.0 -1.5642939988088433 2.709436998432005 0.0 0.0 0.0 5.016955" Properties=species:S:1:pos:R:3:spacegroup_kinds:I:1:momenta:R:3:forces:R:3 spacegroup="P 1" unit_cell=conventional occupancy="_JSON {\"0\": {\"Al\": 1}, \"1\": {\"Al\": 1}, \"2\": {\"N\": 1}, \"3\": {\"N\": 1}}" energy=-29.61321258544922 free_energy=-29.61321258544922 stress="-0.008381524123251438 -0.004276690538972616 0.005492896307259798 -0.004276690538972616 -0.013936910778284073 0.0014804138336330652 0.005492896307259798 0.0014804138336330652 0.012475469149649143" pbc="T T T"
Al       1.57767909       0.87033375       2.48321564        0       0.42145887      -0.10086013       0.75449446      -0.50598723       0.14215463       0.64867616
Al       0.00878683       1.84488738       5.00616579        1       0.94842554       0.04829677      -0.67234681      -0.28191075      -0.37569714       0.05942805
N        1.54733738       0.91884314       4.41695257        2      -0.50233603      -0.06173839      -0.86681711       0.26756737       0.16352540       0.34766760
N       -0.02491949       1.77881440       1.96659665        3      -0.86754839       0.11430176       0.78466944       0.52033055       0.07001703      -1.05577207
4
Lattice="3.128588 0.0 0.0 -1.5642939988088433 2.709436998432005 0.0 0.0 0.0 5.016955" Properties=species:S:1:pos:R:3:spacegroup_kinds:I:1:momenta:R:3:forces:R:3 spacegroup="P 1" unit_cell=conventional occupancy="_JSON {\"0\": {\"Al\": 1}, \"1\": {\"Al\": 1}, \"2\": {\"N\": 1}, \"3\": {\"N\": 1}}" energy=-29.55784034729004 free_energy=-29.55784034729004 stress="-0.016363700851798058 -0.0029478624928742647 0.012903855182230473 -0.0029478624928742647 -0.006207435391843319 0.0015376897063106298 0.012903855182230473 0.0015376897063106298 -0.0027147987857460976" pbc="T T T"
Al       1.59068813       0.88023426       2.52274588        0      -0.41625688       0.17887041       0.33160823      -0.90884137      -0.14030965      -0.36868262
Al       0.01872295       1.83477376       4.97781990        1       0.14973960      -0.20763028      -0.17578590      -0.72829729      -0.10046258       0.72653079
N        1.52039171       0.92489997       4.39464372        2       0.19754384       0.25939877       0.47781810       0.72475886      -0.09605139       0.71574265
N       -0.04216867       1.77342024       1.96745700        3       0.06897344      -0.23063888      -0.63364046       0.91237986       0.33682379      -1.07359135
4
Lattice="3.128588 0.0 0.0 -1.5642939988088433 2.709436998432005 0.0 0.0 0.0 5.016955" Properties=species:S:1:pos:R:3:spacegroup_kinds:I:1:momenta:R:3:forces:R:3 spacegroup="P 1" unit_cell=conventional occupancy="_JSON {\"0\": {\"Al\": 1}, \"1\": {\"Al\": 1}, \"2\": {\"N\": 1}, \"3\": {\"N\": 1}}" energy=-29.62111473083496 free_energy=-29.62111473083496 stress="-0.021500831469893456 0.005276576615869999 -0.0032674360554665327 0.005276576615869999 0.010657762177288532 0.0019249460892751813 -0.0032674360554665327 0.0019249460892751813 -0.001589957857504487" pbc="T T T"
Al       1.54767646       0.89587759       2.50832859        0      -0.85809979       0.46896535      -1.00003140       0.39160633      -0.39029250      -0.15032694
Al       0.00665804       1.82067516       5.00342492        1      -0.72966988      -0.11082602       1.46536805      -0.00949877       0.22696885       0.34862974
N        1.57185932       0.94293297       4.45440723        2       0.62349881      -0.37686568       0.64593222      -0.01969820      -0.43335220      -0.83889997
N        0.01256035       1.75229418       1.88600536        3       0.96427088       0.01872637      -1.11126889      -0.36240929       0.59667581       0.64059687
4
Lattice="3.128588 0.0 0.0 -1.5642939988088433 2.709436998432005 0.0 0.0 0.0 5.016955" Properties=species:S:1:pos:R:3:spacegroup_kinds:I:1:momenta:R:3:forces:R:3 spacegroup="P 1" unit_cell=conventional occupancy="_JSON {\"0\": {\"Al\": 1}, \"1\": {\"Al\": 1}, \"2\": {\"N\": 1}, \"3\": {\"N\": 1}}" energy=-29.520856857299805 free_energy=-29.520856857299805 stress="-0.014047611504793167 0.01182106789201498 -0.014255576767027378 0.01182106789201498 -0.005614620633423328 0.00936152134090662 -0.014255576767027378 0.00936152134090662 -0.01957099512219429" pbc="T T T"
Al       1.52999428       0.91403914       2.46474568        0       0.09545175      -0.23101227      -1.18071404       1.21875477      -0.63577354       0.99290341
Al      -0.00890653       1.82180734       5.05208966        1       0.31216868      -0.10747459       0.45537763       0.39472729      -0.38378555      -1.12710464
N        1.59437713       0.88605550       4.45928988        2      -0.04798997      -0.53350328      -0.20523287      -0.40810537       0.35579011      -0.79021579
N        0.05384447       1.77207216       1.87145001        3      -0.35963047       0.87199015       0.93056929      -1.20537651       0.66376859       0.92441666
4
Lattice="3.128588 0.0 0.0 -1.5642939988088433 2.709436998432005 0.0 0.0 0.0 5.016955" Properties=species:S:1:pos:R:3:spacegroup_kinds:I:1:momenta:R:3:forces:R:3 spacegroup="P 1" unit_cell=conventional occupancy="_JSON {\"0\": {\"Al\": 1}, \"1\": {\"Al\": 1}, \"2\": {\"N\": 1}, \"3\": {\"N\": 1}}" energy=-29.61878776550293 free_energy=-29.61878776550293 stress="0.010117544792592525 -0.0018219045596197248 -0.0018730349838733673 -0.0018219045596197248 -0.02478322573006153 0.004591105040162802 -0.0018730349838733673 0.004591105040162802 2.641104583744891e-05" pbc="T T T"
Al       1.53818034       0.90928016       2.47247628        0       0.23228550      -0.27447267       1.41733296       0.21200901       0.18702203       0.85530722
Al       0.01802690       1.81430744       5.03506518        1       0.60360824      -0.42930328      -1.11140765       0.03760108      -0.69444168      -0.55142492
N        1.59518017       0.85128045       4.42414648        2       0.09084595       0.02420753      -0.77345470      -0.19470203       0.84070551       0.01228024
N       -0.01452986       1.83034433       1.92467357        3      -0.92673967       0.67956845       0.46752941      -0.05490809      -0.33328605      -0.31616265
4
Lattice="3.128588 0.0 0.0 -1.5642939988088433 2.709436998432005 0.0 0.0 0.0 5.016955" Properties=species:S:1:pos:R:3:spacegroup_kinds:I:1:momenta:R:3:forces:R:3 spacegroup="P 1" unit_cell=conventional occupancy="_JSON {\"0\": {\"Al\": 1}, \"1\": {\"Al\": 1}, \"2\": {\"N\": 1}, \"3\": {\"N\": 1}}" energy=-29.62374496459961 free_energy=-29.62374496459961 stress="0.004300334490835667 -0.008672582916915417 0.0028819337021559477 -0.008672582916915417 -0.006943720858544111 -0.004434577189385891 0.0028819337021559477 -0.004434577189385891 -0.01483922079205513" pbc="T T T"
Al       1.54321204       0.89379621       2.53645981        0      -0.00705463      -0.41529146       0.79445046      -0.25249931       0.39302987      -0.87834537
Al       0.03580900       1.79893950       4.98957809        1       0.09337951      -0.29525154      -0.61191968      -0.16601156       0.14057969       0.62745142
N        1.59619758       0.90645098       4.40111846        2      -0.02189853       1.09350696       0.27120799      -0.08899733      -0.09593584       0.34911180
N       -0.05911260       1.83464205       1.91219261        3      -0.06442634      -0.38296393      -0.45373873       0.50750822      -0.43767375      -0.09821788
