4
Lattice="3.128588 0.0 0.0 -1.5642939988088433 2.709436998432005 0.0 0.0 0.0 5.016955" Properties=species:S:1:pos:R:3:spacegroup_kinds:I:1:forces:R:3 spacegroup="P 1" unit_cell=conventional occupancy="_JSON {\"0\": {\"Al\": 1}, \"1\": {\"Al\": 1}, \"2\": {\"N\": 1}, \"3\": {\"N\": 1}}" energy=-29.673717498779297 free_energy=-29.673717498779297 stress="-0.002225517528131604 -1.3349009577723336e-06 -1.7312597577756605e-08 -1.3349009577723336e-06 -0.00222771312110126 -1.4506968071259507e-08 -1.7312597577756605e-08 -1.4506968071259507e-08 -0.005453819874674082" pbc="T T T"
Al       1.56429556       0.90314476       2.50490041        0      -0.00003488       0.00002130       0.00553229
Al      -0.00000156       1.80629224       5.01337791        1       0.00003401      -0.00002052       0.00552358
N        1.56429556       0.90314476       4.41849749        2      -0.00003576       0.00002096      -0.00553041
N       -0.00000156       1.80629224       1.91001999        3       0.00003671      -0.00002182      -0.00552506
