32
Lattice="6.17176593 0.0 0.0 0.0 8.01859859 0.0 0.0 0.0 13.03281824" Properties=species:S:1:pos:R:3:spacegroup_kinds:I:1:momenta:R:3:forces:R:3 spacegroup="P 1" unit_cell=conventional occupancy="_JSON {\"0\": {\"Li\": 1}, \"1\": {\"Li\": 1}, \"2\": {\"Li\": 1}, \"3\": {\"Li\": 1}, \"4\": {\"Li\": 1}, \"5\": {\"Li\": 1}, \"6\": {\"Li\": 1}, \"7\": {\"Li\": 1}, \"8\": {\"Li\": 1}, \"9\": {\"Li\": 1}, \"10\": {\"Li\": 1}, \"11\": {\"Li\": 1}, \"12\": {\"P\": 1}, \"13\": {\"P\": 1}, \"14\": {\"P\": 1}, \"15\": {\"P\": 1}, \"16\": {\"S\": 1}, \"17\": {\"S\": 1}, \"18\": {\"S\": 1}, \"19\": {\"S\": 1}, \"20\": {\"S\": 1}, \"21\": {\"S\": 1}, \"22\": {\"S\": 1}, \"23\": {\"S\": 1}, \"24\": {\"S\": 1}, \"25\": {\"S\": 1}, \"26\": {\"S\": 1}, \"27\": {\"S\": 1}, \"28\": {\"S\": 1}, \"29\": {\"S\": 1}, \"30\": {\"S\": 1}, \"31\": {\"S\": 1}}" energy=-139.29336547851562 free_energy=-139.29336547851562 stress="-0.015277378261089325 0.0006831440259702504 -0.0014667584327980876 0.0006831440259702504 -0.0099745849147439 -0.0010351777309551835 -0.0014667584327980876 -0.0010351777309551835 -0.006143002305179834" pbc="T T T"
Li       2.06492522       0.13522018       4.55192049        0      -0.19682651       0.01461755       0.00552087       0.03348917       0.14527452      -0.24351618
Li       3.49152045       7.95200560       8.96522152        1       0.48563896      -0.07397265      -0.04904692       0.49763280      -0.18439272      -0.13091125
Li       5.71693704       7.57667127       2.33841793        2       0.08411196       0.18494854       0.17435286       0.08058459       0.14555134       0.02598800
Li       0.86994089       0.12913954      11.18135319        3       0.03143109       0.01304689      -0.02964982      -0.26207304      -0.26340923      -0.35737342
Li       3.94568549       4.29214418       8.67975447        4       0.02558413       0.37092887      -0.36953473      -0.10663605       0.14673671       0.08653003
Li       2.73274422       3.63568579       4.23086637        5       0.35596960      -0.15462642       0.05505482      -0.38552323      -0.15169793       0.08164885
Li       0.79060256       3.79115194      10.70114556        6      -0.74186648       0.33438988       0.66029063      -0.05582451      -0.22198135       0.15270013
Li       5.33500038       4.03379646       2.36773395        7      -0.12028955      -0.59405096      -0.68906773       0.18640965       0.11802176      -0.58827949
Li       3.58402968       0.23966190       0.14887685        8      -0.78209845      -0.32092469      -0.24846560      -0.00689878       0.17495161       0.14949536
Li      -0.38866823       0.56698720       6.79091198        9       0.21867039      -0.17295178       0.19327548      -0.31634220      -0.17387408      -0.26381740
Li       3.01723815       4.25878046       0.07557369       10      -0.15360035      -0.05963651      -0.63946344      -0.26272219      -0.02976513       0.09359185
Li       0.27376372       4.57568923       6.49963691       11       0.27260995       0.11391175      -0.05704020      -0.02414274       0.15232593      -0.40457937
P        1.09630207       1.86931670       1.07599125       12       0.77665401      -0.64343618       0.81193791      -0.36654785       1.05668962       0.97069037
P        5.32202617       5.87777678      12.06205079       13       0.51622721       0.89367792       0.83714952      -1.08570850      -0.31778410      -0.24730957
P        4.01195461       6.14582090       5.25476785       14       0.54173512      -1.65149809      -0.70890865       0.03659746      -0.09155240      -0.41194955
P        2.02559344       2.02829672       7.54272804       15       0.55237083       2.87005840      -1.14925761      -0.56303477      -0.82488471      -0.06142263
S        5.24122079       1.79730580       1.39901431       16      -0.96467664      -0.47331756      -1.57580132      -0.35145587      -0.11539847      -0.34761491
S        1.11676702       5.79655332      11.91990811       17       1.01542244       0.47703424      -0.22790320       1.35016656       0.52997637      -0.03637500
S        2.04967058       5.86264428       5.01609035       18       1.27901459       0.43166378       0.50603848      -1.19224179      -0.29127049       0.05749673
S        4.03801667       2.12674526       7.66227237       19       0.59971011       0.23682132       0.71968558       0.32951999      -0.10201237       0.20487437
S        1.75326586       2.01401745      12.13581354       20      -1.64722371       0.03379293      -0.31862655       0.27649838       0.01203934       0.58186996
S        4.53654309       6.09829425       0.92659823       21       0.18692471      -1.19154538       0.46192730       0.00505289      -0.59474277       0.15469794
S        4.64953843       6.33546268       7.15186932       22       0.09729530       0.03883259      -0.00444016       0.40352771      -0.25958440       1.34847593
S        1.22168254       2.03743232       5.62741896       23      -0.35072500      -0.08080027      -0.35875173       0.20374608       0.13478237       0.13241714
S        1.89224278       0.25899399       2.01776435       24      -0.39232756       0.22864424      -1.67600701       0.21083327      -0.16095360      -0.35000318
S        4.55969953       7.52802193      11.11958241       25       1.29115798       0.70796250      -0.68499306       0.20016083       0.49651700      -0.33365226
S        4.44938401       7.89258096       4.36200582       26      -0.83458890       0.02806780       1.07532715       0.56899655       0.45795232      -0.17359005
S        1.29193465       0.30785463       8.49723717       27      -0.29695906       0.44130587      -0.01603666      -0.01754533       0.35861927      -0.09334815
S        4.62139331       4.13683124      11.22640365       28       0.48181165      -0.51078563       1.37634336      -0.38762847      -0.07024150      -0.18340331
S        1.56217924       3.68528856       2.10642328       29      -0.55023239       0.64864466       2.06342986       0.35757914      -0.61401081      -0.78910553
S        1.25346423       3.68901883       8.39281235       30      -1.77565353      -1.42487437      -0.20818018       0.18143004       0.70751500       0.55467701
S        4.90742401       4.45888860       4.53264677       31      -0.00527173      -0.71592911       0.07084072       0.46210021      -0.16939697       0.42109743
