32
Lattice="6.17176593 0.0 0.0 0.0 8.01859859 0.0 0.0 0.0 13.03281824" Properties=species:S:1:pos:R:3:spacegroup_kinds:I:1:momenta:R:3:forces:R:3 spacegroup="P 1" unit_cell=conventional occupancy="_JSON {\"0\": {\"Li\": 1}, \"1\": {\"Li\": 1}, \"2\": {\"Li\": 1}, \"3\": {\"Li\": 1}, \"4\": {\"Li\": 1}, \"5\": {\"Li\": 1}, \"6\": {\"Li\": 1}, \"7\": {\"Li\": 1}, \"8\": {\"Li\": 1}, \"9\": {\"Li\": 1}, \"10\": {\"Li\": 1}, \"11\": {\"Li\": 1}, \"12\": {\"P\": 1}, \"13\": {\"P\": 1}, \"14\": {\"P\": 1}, \"15\": {\"P\": 1}, \"16\": {\"S\": 1}, \"17\": {\"S\": 1}, \"18\": {\"S\": 1}, \"19\": {\"S\": 1}, \"20\": {\"S\": 1}, \"21\": {\"S\": 1}, \"22\": {\"S\": 1}, \"23\": {\"S\": 1}, \"24\": {\"S\": 1}, \"25\": {\"S\": 1}, \"26\": {\"S\": 1}, \"27\": {\"S\": 1}, \"28\": {\"S\": 1}, \"29\": {\"S\": 1}, \"30\": {\"S\": 1}, \"31\": {\"S\": 1}}" energy=-140.31869506835938 free_energy=-140.31869506835938 stress="-0.007170635275542736 4.487807458986026e-09 1.0021052876396652e-09 4.487807458986026e-09 -0.008259429596364498 6.1128062611714995e-09 1.0021052876396652e-09 6.1128062611714995e-09 -0.005266309250146151" pbc="T T T"
Li       2.40329652       0.26860172       4.33400832        0       0.00000000       0.00000000       0.00000000      -0.02603561       0.00549115      -0.00432149
Li       3.76846941       7.74999687       8.69880992        1       0.00000000       0.00000000       0.00000000       0.02603680      -0.00549150       0.00432248
Li       5.48917948       7.74999687       2.18240080        2       0.00000000       0.00000000       0.00000000      -0.02603578      -0.00549081       0.00432277
Li       0.68258645       0.26860172      10.85041744        3       0.00000000       0.00000000       0.00000000       0.02603529       0.00549196      -0.00431943
Li       3.76846941       4.27790102       8.69880992        4       0.00000000       0.00000000       0.00000000       0.02603642       0.00549131       0.00432253
Li       2.40329652       3.74069757       4.33400832        5       0.00000000       0.00000000       0.00000000      -0.02603560      -0.00549105      -0.00432127
Li       0.68258645       3.74069757      10.85041744        6       0.00000000       0.00000000       0.00000000       0.02603618      -0.00549175      -0.00432010
Li       5.48917948       4.27790102       2.18240080        7       0.00000000       0.00000000       0.00000000      -0.02603589       0.00549092       0.00432269
Li       3.08588297       0.00000000       0.00000000        8       0.00000000       0.00000000       0.00000000      -0.00000054      -0.00000107      -0.00000093
Li       0.00000000       0.00000000       6.51640912        9       0.00000000       0.00000000       0.00000000      -0.00000012      -0.00000013       0.00000085
Li       3.08588297       4.00929929       0.00000000       10       0.00000000       0.00000000       0.00000000      -0.00000035       0.00000068      -0.00000105
Li       0.00000000       4.00929929       6.51640912       11       0.00000000       0.00000000       0.00000000       0.00000071       0.00000158       0.00000075
P        0.94051010       2.00464965       1.16601784       12       0.00000000       0.00000000       0.00000000      -0.02067161      -0.00000100       0.02376011
P        5.23125583       6.01394894      11.86680040       13       0.00000000       0.00000000       0.00000000       0.02066623       0.00000097      -0.02375933
P        4.02639307       6.01394894       5.35039128       14       0.00000000       0.00000000       0.00000000      -0.02066821       0.00000196      -0.02375638
P        2.14537286       2.00464965       7.68242696       15       0.00000000       0.00000000       0.00000000       0.02066898       0.00000004       0.02375925
S        5.08970823       2.00464965       1.30575389       16       0.00000000       0.00000000       0.00000000      -0.25450695      -0.00000068       0.01679002
S        1.08205770       6.01394894      11.72706435       17       0.00000000       0.00000000       0.00000000       0.25450766      -0.00000058      -0.01679146
S        2.00382526       6.01394894       5.21065523       18       0.00000000       0.00000000       0.00000000      -0.25450605      -0.00000058      -0.01679290
S        4.16794067       2.00464965       7.82216301       19       0.00000000       0.00000000       0.00000000       0.25450066      -0.00000033       0.01679056
S        1.68132889       2.00464965      12.25955363       20       0.00000000       0.00000000       0.00000000       0.10912287       0.00000019      -0.16719684
S        4.49043704       6.01394894       0.77326461       21       0.00000000       0.00000000       0.00000000      -0.10912105       0.00000034       0.16718197
S        4.76721186       6.01394894       7.28967373       22       0.00000000       0.00000000       0.00000000       0.10912091      -0.00000008       0.16717935
S        1.40455407       2.00464965       5.74314451       23       0.00000000       0.00000000       0.00000000      -0.10911947      -0.00000011      -0.16718103
S        1.67233151       0.29287049       2.00524453       24       0.00000000       0.00000000       0.00000000       0.13957816      -0.21272567       0.08709887
S        4.49943442       7.72572810      11.02757371       25       0.00000000       0.00000000       0.00000000      -0.13957548       0.21272489      -0.08709274
S        4.75821447       7.72572810       4.51116459       26       0.00000000       0.00000000       0.00000000       0.13957569       0.21272440      -0.08709146
S        1.41355146       0.29287049       8.52165365       27       0.00000000       0.00000000       0.00000000      -0.13957699      -0.21272148       0.08709057
S        4.49943442       4.30216979      11.02757371       28       0.00000000       0.00000000       0.00000000      -0.13957681      -0.21272527      -0.08709460
S        1.67233151       3.71642880       2.00524453       29       0.00000000       0.00000000       0.00000000       0.13957863       0.21272662       0.08710009
S        1.41355146       3.71642880       8.52165365       30       0.00000000       0.00000000       0.00000000      -0.13957615       0.21272075       0.08709121
S        4.75821447       4.30216979       4.51116459       31       0.00000000       0.00000000       0.00000000       0.13957734      -0.21272576      -0.08709295
32
Lattice="6.17176593 0.0 0.0 0.0 8.01859859 0.0 0.0 0.0 13.03281824" Properties=species:S:1:pos:R:3:spacegroup_kinds:I:1:momenta:R:3:forces:R:3 spacegroup="P 1" unit_cell=conventional occupancy="_JSON {\"0\": {\"Li\": 1}, \"1\": {\"Li\": 1}, \"2\": {\"Li\": 1}, \"3\": {\"Li\": 1}, \"4\": {\"Li\": 1}, \"5\": {\"Li\": 1}, \"6\": {\"Li\": 1}, \"7\": {\"Li\": 1}, \"8\": {\"Li\": 1}, \"9\": {\"Li\": 1}, \"10\": {\"Li\": 1}, \"11\": {\"Li\": 1}, \"12\": {\"P\": 1}, \"13\": {\"P\": 1}, \"14\": {\"P\": 1}, \"15\": {\"P\": 1}, \"16\": {\"S\": 1}, \"17\": {\"S\": 1}, \"18\": {\"S\": 1}, \"19\": {\"S\": 1}, \"20\": {\"S\": 1}, \"21\": {\"S\": 1}, \"22\": {\"S\": 1}, \"23\": {\"S\": 1}, \"24\": {\"S\": 1}, \"25\": {\"S\": 1}, \"26\": {\"S\": 1}, \"27\": {\"S\": 1}, \"28\": {\"S\": 1}, \"29\": {\"S\": 1}, \"30\": {\"S\": 1}, \"31\": {\"S\": 1}}" energy=-140.063720703125 free_energy=-140.063720703125 stress="0.000839425774756819 5.4998588893795386e-05 0.0004582646070048213 5.4998588893795386e-05 -0.0026352214626967907 -0.0004067451518494636 0.0004582646070048213 -0.0004067451518494636 -0.004339444451034069" pbc="T T T"
Li       2.38786572       0.31820318       4.21076137        0       0.19934695       0.04761707      -0.38642756       0.01811919       0.07828426       0.33671427
Li       3.79714706       7.76565361       8.77305876        1       0.29236212      -0.31034927      -0.10708289      -0.06308918      -0.03004418      -0.17518225
Li       5.41475328       7.68675486       2.25483945        2      -0.09765950       0.11517734      -0.31433535       0.20029595       0.17177996      -0.00756107
Li       0.78778412       0.29053305      10.90806604        3       0.03756673       0.54248628      -0.23027882      -0.13970515       0.00801163       0.05562184
Li       3.74751663       4.42134160       8.71767973        4      -0.34874626      -0.02413009       0.03860656      -0.03340179      -0.36479890       0.11263201
Li       2.41158117       3.73243355       4.25918013        5       0.09737516       0.35233876      -0.05250180       0.03652627      -0.01753875       0.16693486
Li       0.65135150       3.73551655      10.84609477        6      -0.13737787       0.00965832       0.66483728       0.00862534      -0.00965332      -0.00132433
Li       5.42860746       4.24683841       2.12040137        7       0.17517082      -0.16976340       0.13030439       0.07382260       0.01333431       0.01074858
Li       3.12880027      -0.03416701       0.05668657        8       0.44816882       0.19632015       0.04248216      -0.06579205       0.13676868      -0.06970255
Li       0.02415496       0.06600726       6.56095244        9      -0.27918696       0.23449159      -0.23252681      -0.19813961      -0.04521586      -0.09673028
Li       2.96743527       4.07696701      -0.03884701       10       0.04627838       0.54966608       0.24374172      -0.00239928       0.11935961       0.02198193
Li       0.29269848       4.32453627       6.40711553       11       0.63474149       0.36397212      -0.32778789       0.01692574      -0.01695908      -0.01066492
P        0.95750077       1.98851513       1.20049828       12       0.26255500      -1.24135712       0.03378006       0.10448812      -0.46289790      -0.16810204
P        5.21826242       6.00393986      11.89227753       13       0.22220820      -0.17609993       0.47583456       0.59485424      -0.57820684      -0.55268461
P        4.03401135       5.98470254       5.33187530       14      -0.26734840       0.13705131       0.14742538       0.41097292       0.29431191       0.11791918
P        2.11764743       2.01367362       7.66937932       15      -0.26950929      -0.25934375       0.06621959      -0.05840585      -0.13223258      -0.11248723
S        5.10312960       1.96092535       1.31688343       16       0.94423517       0.00096377       0.09518411      -0.04003144       0.06171887       0.03477995
S        1.14033022       6.01965904      11.66792732       17      -0.36529724      -0.62718622      -0.71287884      -0.76687723      -0.14455147       0.14901257
S        2.00624092       6.05625196       5.12559475       18       0.13440113       0.58734371      -0.23796096      -0.09755586      -0.19828543       0.12177432
S        4.13897162       1.93399317       7.73771272       19      -1.22589030      -0.68512735      -0.91679130      -0.03109440       0.23341629       0.08358890
S        1.75239825       2.07245142      12.30322522       20       0.43686858       0.53628833       0.13151607      -0.13743697      -0.31674677      -0.13294411
S        4.49633921       6.08154098       0.78154515       21      -0.09723912       0.44773899       0.31268127      -0.08045958      -0.41504216       0.35825223
S        4.81562797       5.95260729       7.32153824       22       0.09578231      -0.44180684       0.40923127      -0.17485011       0.34069878      -0.59944671
S        1.29089841       2.07751833       5.72593278       23      -0.59881356       0.75985663       0.78671687       0.23945060      -0.17336597       0.14846838
S        1.68194878       0.21915628       2.00680532       24       0.19130533      -0.79734813      -0.08459420      -0.18482912       0.18560621      -0.25175691
S        4.46929491       7.69003087      11.05227954       25      -0.07256177      -0.07257991       0.39394753       0.04625325       0.33604690      -0.15448140
S        4.74842183       7.77167369       4.52933306       26      -0.31265414       0.08214208      -0.40069183      -0.02630340      -0.38835713       0.27482808
S        1.34482612       0.32807037       8.58120800       27      -0.88463427       0.57521383       0.55299211       0.10605823      -0.06522159      -0.19157310
S        4.43756343       4.22096035      11.09442365       28      -0.34000109       0.12660769       0.61663617       0.39653212       0.58746994       0.08063196
S        1.72584689       3.68662999       2.01256397       29       0.19325702      -0.36059525      -0.09033670      -0.10858723       0.35298640       0.22814749
S        1.40367702       3.72637863       8.53440988       30       0.87455390      -0.17968077      -0.50480211       0.03731546       0.22720361       0.05240350
S        4.79582673       4.27918430       4.46402013       31       0.01074275      -0.31956601      -0.54314007      -0.08128184       0.21212047       0.17020148
32
Lattice="6.17176593 0.0 0.0 0.0 8.01859859 0.0 0.0 0.0 13.03281824" Properties=species:S:1:pos:R:3:spacegroup_kinds:I:1:momenta:R:3:forces:R:3 spacegroup="P 1" unit_cell=conventional occupancy="_JSON {\"0\": {\"Li\": 1}, \"1\": {\"Li\": 1}, \"2\": {\"Li\": 1}, \"3\": {\"Li\": 1}, \"4\": {\"Li\": 1}, \"5\": {\"Li\": 1}, \"6\": {\"Li\": 1}, \"7\": {\"Li\": 1}, \"8\": {\"Li\": 1}, \"9\": {\"Li\": 1}, \"10\": {\"Li\": 1}, \"11\": {\"Li\": 1}, \"12\": {\"P\": 1}, \"13\": {\"P\": 1}, \"14\": {\"P\": 1}, \"15\": {\"P\": 1}, \"16\": {\"S\": 1}, \"17\": {\"S\": 1}, \"18\": {\"S\": 1}, \"19\": {\"S\": 1}, \"20\": {\"S\": 1}, \"21\": {\"S\": 1}, \"22\": {\"S\": 1}, \"23\": {\"S\": 1}, \"24\": {\"S\": 1}, \"25\": {\"S\": 1}, \"26\": {\"S\": 1}, \"27\": {\"S\": 1}, \"28\": {\"S\": 1}, \"29\": {\"S\": 1}, \"30\": {\"S\": 1}, \"31\": {\"S\": 1}}" energy=-139.7517547607422 free_energy=-139.7517547607422 stress="-0.0028351466171443462 -0.00018295072368346155 -7.695246495131869e-06 -0.00018295072368346155 -0.01115232240408659 -0.0023200083523988724 -7.695246495131869e-06 -0.0023200083523988724 -0.00681987963616848" pbc="T T T"
Li       2.21976648       0.34344706       4.44497334        0      -0.38101310       0.01167243       0.11159993       0.23654073      -0.15943238      -0.25021428
Li       3.67523132       7.56606021       8.65876312        1      -0.71888994       0.40647946       0.01884428      -0.09868231       0.23803946       0.08790356
Li       5.60887281       7.84250264       2.21349584        2       0.23379858      -0.05156269       0.14131832      -0.21656519      -0.26290321       0.00626096
Li       0.74392674       0.32838478      10.95500165        3      -0.16403685       0.27579574      -0.25782217      -0.02848696      -0.08467632       0.08478174
Li       3.95780887       4.05808432       8.76800943        4       0.76474655      -0.65359181      -0.16279651       0.03406387       0.05708450      -0.08643740
Li       2.36829268       3.73756186       4.34011360        5      -0.14187785      -0.39891993      -0.10169459       0.12842233       0.08858697      -0.13080350
Li       0.58127391       3.62325722      10.79402920        6      -0.01837682      -0.25165969      -0.46685712       0.18770868       0.06860968       0.10997705
Li       5.55638977       4.23517087       2.12847769        7       0.21754973       0.34316163      -0.08410845      -0.12522949       0.05561321       0.15325600
Li       3.17994096       0.02354787      -0.06321346        8       0.15196305      -0.09915461       0.01110118      -0.07946944       0.13636839       0.25022000
Li      -0.26122575       0.00803731       6.57454454        9      -0.36261200       0.36012836       0.55151121       0.05123740       0.30808312      -0.05053449
Li       2.88664533       4.46337955      -0.02853980       10      -0.02393347       0.37779765      -0.03723657      -0.32817608      -0.19840658      -0.04582248
Li       0.61377051       4.39548374       6.44651683       11      -0.05940700       0.20535377       0.34697222      -0.26821530       0.19316313      -0.00266153
P        1.03311844       1.96369098       1.18487930       12       0.28279241       1.34283257      -0.98348333      -0.32086334      -0.09750564      -0.26346958
P        5.24089760       5.95715741      11.92067901       13      -1.21488576       0.70892205       0.00010797       0.70121288      -0.18652639       0.39384019
P        4.05062335       5.99659278       5.29888031       14      -0.31603261       0.20297501      -1.04464251      -1.42442441       1.40717983      -0.44406548
P        2.01905930       1.98848144       7.65849568       15      -0.52557612      -0.15610143       0.00012111       0.84523302       0.61885804       0.25030050
S        5.19012989       2.00148317       1.37209034       16      -0.17840082      -0.05580220       0.13062651      -0.44185978      -0.15993986      -0.07021162
S        1.13369879       5.94618723      11.60184960       17       0.62554966      -0.25852107       0.38885216      -0.43505764       0.12936756       0.25503594
S        1.93292143       6.08622672       5.12732644       18      -0.80748242       0.15213920       0.50372417       0.52260828      -0.29934478       0.17712881
S        4.09235874       1.89725375       7.65123921       19       0.23336605      -0.14111519       0.30112299      -0.43324354      -0.17679311       0.18470877
S        1.71322291       2.11812784      12.28082252       20      -0.32241534      -0.29108822      -0.16916906       0.27141398      -0.35957959      -0.32574186
S        4.50416220       6.01097578       0.89341044       21       0.69501617      -1.19911569       1.39471019       0.37322861       0.19488998      -0.58918500
S        4.77528407       5.99974257       7.17705248       22      -0.16245412       0.81058004      -0.45667063       0.23505753      -0.02799232       1.42756164
S        1.27441383       2.08720956       5.72316057       23      -0.68748173      -0.19171595      -0.62685512      -0.29054189       0.00537302       0.18871519
S        1.75291259       0.20302899       1.92324147       24       0.65336455       0.43925101       0.11264909       0.25969332       0.02721062       0.23269473
S        4.54106569       7.67809813      11.09073928       25       1.22026912       0.27671092      -0.26040237      -0.15009037       0.18216823      -0.46449611
S        4.70014298       7.74864334       4.43425905       26      -0.01651101       0.13057036      -0.63718025      -0.04338392       0.05962151       0.13969170
S        1.22556564       0.38335106       8.59927308       27      -0.64546574       0.31806105      -0.50764232      -0.02699102      -0.42894599      -0.16504288
S        4.51932861       4.20613700      11.16201881       28       0.96082584      -2.01677565      -0.62856354      -0.38165891       0.04238053      -0.09262909
S        1.70051364       3.67843683       2.01796572       29      -0.25378914      -0.11997433       1.34315248       0.52851212       0.54196775       0.45636904
S        1.52339385       3.77791685       8.63059590       30       0.67544965      -0.00641875       1.17959979       0.02672044      -0.28563446      -0.43847460
S        4.73758492       4.33749415       4.56620257       31       0.28595059      -0.47091407      -0.11088908       0.69128656      -1.62688518      -0.97865593
32
Lattice="6.17176593 0.0 0.0 0.0 8.01859859 0.0 0.0 0.0 13.03281824" Properties=species:S:1:pos:R:3:spacegroup_kinds:I:1:momenta:R:3:forces:R:3 spacegroup="P 1" unit_cell=conventional occupancy="_JSON {\"0\": {\"Li\": 1}, \"1\": {\"Li\": 1}, \"2\": {\"Li\": 1}, \"3\": {\"Li\": 1}, \"4\": {\"Li\": 1}, \"5\": {\"Li\": 1}, \"6\": {\"Li\": 1}, \"7\": {\"Li\": 1}, \"8\": {\"Li\": 1}, \"9\": {\"Li\": 1}, \"10\": {\"Li\": 1}, \"11\": {\"Li\": 1}, \"12\": {\"P\": 1}, \"13\": {\"P\": 1}, \"14\": {\"P\": 1}, \"15\": {\"P\": 1}, \"16\": {\"S\": 1}, \"17\": {\"S\": 1}, \"18\": {\"S\": 1}, \"19\": {\"S\": 1}, \"20\": {\"S\": 1}, \"21\": {\"S\": 1}, \"22\": {\"S\": 1}, \"23\": {\"S\": 1}, \"24\": {\"S\": 1}, \"25\": {\"S\": 1}, \"26\": {\"S\": 1}, \"27\": {\"S\": 1}, \"28\": {\"S\": 1}, \"29\": {\"S\": 1}, \"30\": {\"S\": 1}, \"31\": {\"S\": 1}}" energy=-139.47940063476562 free_energy=-139.47940063476562 stress="-0.0037569361738860607 -0.0021255845203995705 0.0007042791112326086 -0.0021255845203995705 0.0009529786766506732 0.0041618337854743 0.0007042791112326086 0.0041618337854743 -0.004829224664717913" pbc="T T T"
Li       2.12865502       0.24367762       4.25267048        0       0.09729506       0.09813514       0.34347386      -0.05380238       0.02399276       0.25531977
Li       3.51874928       7.91718800       8.85502027        1       0.69289255       0.31901129       0.21469517       0.05827903      -0.32965428       0.02675231
Li       5.75698366       7.67253200       2.22326523        2       0.46371806      -0.02323781      -0.17337642      -0.06302897       0.01157189      -0.04541691
Li       0.76229804       0.32176190      10.74373984        3      -0.28670142      -0.59557988      -0.21664485      -0.22345087      -0.23573360       0.55541289
Li       4.25551018       4.19883228       8.47860863        4      -0.11319738      -0.06649754       0.06597180      -0.27505335      -0.44941261       0.41175637
Li       2.62701484       3.42911337       4.23915361        5      -0.10823804      -0.18150892      -0.02385861      -0.31035048       0.09128908       0.29357556
Li       0.86238986       3.59754276      10.90888339        6      -0.04030854       0.15339409       0.30471117      -0.18059543       0.20444682      -0.23341644
Li       5.56986347       4.15870334       2.38014131        7      -0.01487975      -0.22696064      -0.02596099      -0.01524605       0.13330323      -0.59221578
Li       3.44325757       0.22189941       0.05307100        8       0.77735905       0.34740481       0.28343385       0.02286619       0.04360687       0.13935240
Li      -0.56295141       0.35950814       6.61272431        9      -0.88602622       0.31600379      -0.58948531       0.11284532      -0.10345236      -0.12625718
Li       2.62223195       4.42283289      -0.18147114       10       0.12970261      -0.73028362       0.22061919       0.29156849      -0.03804458       0.16068634
Li       0.38250798       4.77960001       6.46521118       11      -0.62905587       0.12548780       0.13159318       0.14880893      -0.30046976       0.01279205
P        0.99638934       2.08663241       1.18312017       12      -1.01530159       0.97121381       0.69850012       1.12017775      -0.68719733      -0.48578027
P        5.25905375       5.86504371      11.98342060       13      -0.53645859      -0.01041830       0.01878294       0.31229159       0.14402023      -0.41029462
P        4.01186152       6.02477577       5.24625366       14       0.74718719      -0.41667084       0.66912075      -0.76461810      -0.54053283      -0.08093055
P        2.00425633       2.06395114       7.64132839       15      -1.00507253      -1.10148949       0.14670234      -0.09027264      -0.20327339       0.09512250
S        5.18386678       1.96366448       1.37410738       16      -0.12284913       0.38119051       0.12126752      -0.38876808       0.03622802       0.07124771
S        1.11493764       5.98841254      11.75128440       17       1.02831654       0.86830145       0.98491962       0.29070815      -0.06702274      -0.18032904
S        1.93300761       5.99048864       5.11074481       18       0.86268655      -0.73391084      -1.01800749       0.54576087      -0.18300813      -0.21191193
S        4.06156532       1.85935719       7.64586186       19       0.58214734      -0.32029700       0.05816278      -0.29534483       0.45292190       0.17187087
S        1.80764224       1.89058787      12.22709068       20       1.17091265      -0.77800240       0.23098704      -0.25143081       0.74028909       0.62246984
S        4.67202710       5.93217926       0.91349088       21       0.57576976      -0.76217709      -0.84927345      -0.43214539       0.13317046       0.10395840
S        4.60416538       6.08286176       7.25144865       22      -0.76961933       1.24319452      -0.03244932       0.28060517       0.40151444      -0.30583638
S        1.08533205       2.06515560       5.80427831       23      -0.19455738       0.03321425       1.01901706       0.33030546       0.15420809      -0.46372095
S        1.87802137       0.35027548       1.92005615       24       1.09362886      -0.50211128      -0.01129258      -0.17330471       0.16330481       0.24138227
S        4.55528708       7.62377222      11.07832348       25      -0.50413956      -1.97257091       0.56807303      -0.01278500      -0.34999084       0.03094144
S        4.51837617       7.79753008       4.35537746       26      -1.39609199      -0.42840730      -0.14798865       0.48682550      -0.21378094       0.10840688
S        1.16050932       0.39405167       8.52821615       27      -0.01470539       0.30635069      -1.13952637       0.22026217       0.05860930      -0.32943293
S        4.62203305       4.07798327      11.22245373       28      -0.82212448       0.07592956      -0.08270909      -0.26587459       0.25546879      -0.21620753
S        1.74651241       3.79996803       2.09174206       29       0.32689940      -0.00875194      -1.24435563      -0.20573619      -0.36924520      -0.60702020
S        1.57319128       3.84034320       8.55439972       30       0.03811976       1.25651785      -0.95021022       0.01735164       0.03952249      -0.01512250
S        4.81981059       4.22326514       4.47401370       31      -0.12730811       2.36352629       0.42510763      -0.23684821       0.98335016       1.00284553
32
Lattice="6.17176593 0.0 0.0 0.0 8.01859859 0.0 0.0 0.0 13.03281824" Properties=species:S:1:pos:R:3:spacegroup_kinds:I:1:momenta:R:3:forces:R:3 spacegroup="P 1" unit_cell=conventional occupancy="_JSON {\"0\": {\"Li\": 1}, \"1\": {\"Li\": 1}, \"2\": {\"Li\": 1}, \"3\": {\"Li\": 1}, \"4\": {\"Li\": 1}, \"5\": {\"Li\": 1}, \"6\": {\"Li\": 1}, \"7\": {\"Li\": 1}, \"8\": {\"Li\": 1}, \"9\": {\"Li\": 1}, \"10\": {\"Li\": 1}, \"11\": {\"Li\": 1}, \"12\": {\"P\": 1}, \"13\": {\"P\": 1}, \"14\": {\"P\": 1}, \"15\": {\"P\": 1}, \"16\": {\"S\": 1}, \"17\": {\"S\": 1}, \"18\": {\"S\": 1}, \"19\": {\"S\": 1}, \"20\": {\"S\": 1}, \"21\": {\"S\": 1}, \"22\": {\"S\": 1}, \"23\": {\"S\": 1}, \"24\": {\"S\": 1}, \"25\": {\"S\": 1}, \"26\": {\"S\": 1}, \"27\": {\"S\": 1}, \"28\": {\"S\": 1}, \"29\": {\"S\": 1}, \"30\": {\"S\": 1}, \"31\": {\"S\": 1}}" energy=-139.23809814453125 free_energy=-139.23809814453125 stress="0.004599587991833687 0.003143261419609189 0.001004343735985458 0.003143261419609189 -0.003668572986498475 -0.0013864103239029646 0.001004343735985458 -0.0013864103239029646 -0.003552744397893548" pbc="T T T"
Li       1.96224714       0.20748115       4.49709819        0      -0.05578181      -0.27808551       0.21344226       0.18838909      -0.03945536      -0.11560772
Li       3.87999096       7.79486471       8.89689742        1      -0.35480656      -0.41027820       0.34441858      -0.37261128       0.28206059      -0.00437644
Li       5.90498554       7.66449677       2.22930310        2      -0.17949085       0.19895920       0.14260875      -0.33729291      -0.12351451      -0.04347192
Li       0.64589348       0.06172502      10.91516592        3       0.03606060       0.10865903       0.20082735       0.13668975       0.24087262      -0.02976422
Li       3.89976313       4.03647711       8.73716916        4      -0.07425778       0.08301781       0.58387198       0.18265229       0.41679460      -0.10586567
Li       2.31940206       3.54735162       4.27724596        5      -0.16162235       0.09600309       0.19498096       0.32744002       0.10381898      -0.22618803
Li       0.99536701       3.76066049      10.75811166        6       0.12475998      -0.11876413      -0.34587970      -0.17054698      -0.06960746       0.07031140
Li       5.42363150       4.24400327       2.12300077        7      -0.02122514       0.08547665       0.37644617       0.16298005      -0.21405835       0.34830931
Li       3.71811271       0.34036658       0.27768495        8      -0.08163946       0.30239832       0.32164438      -0.05730540       0.01690381      -0.09191651
Li      -0.70631567       0.43374520       6.37899155        9       0.28388026       0.39435126       0.64225484       0.17683367       0.11446069       0.20641056
Li       2.97550742       4.27805295       0.04031204       10       0.07614786       0.06754221       0.66203729      -0.02541510       0.00432121      -0.17185313
Li       0.42089221       4.71513686       6.43263667       11      -0.11546124      -0.24960275      -0.21266662      -0.30710861      -0.08237164       0.13840385
P        1.08812586       1.90932738       1.09577164       12      -0.11260323      -0.05417273       0.28065369      -0.93720567       1.09206033       0.40805176
P        5.33882419       5.76319047      12.00936179       13      -0.28386642      -0.65613262       0.53214405      -0.82600427       0.71024418      -0.18008308
P        3.90219471       6.16797846       5.29644437       14      -0.13840678       1.40540751      -0.90570071       0.90499699      -0.71411699      -0.01335351
P        1.97632804       2.02834434       7.63734057       15      -0.29952596      -0.83185479      -0.05696277       0.20302370      -1.56579363      -0.23433773
S        5.14505817       1.90419042       1.49729308       16       0.84599780      -0.99903306       0.15872564       1.08117771      -0.18377426      -0.43729883
S        1.20107474       5.93867305      11.95004267       17       1.17321558      -1.37223130       1.15144294      -0.31224385      -0.27068433      -0.31772843
S        1.89090888       5.80093260       4.97816046       18      -0.78299614      -0.28026205      -0.21818183       0.37959743       0.75625485      -0.05997368