32
Lattice="6.17176593 0.0 0.0 0.0 8.01859859 0.0 0.0 0.0 13.03281824" Properties=species:S:1:pos:R:3:spacegroup_kinds:I:1:forces:R:3 spacegroup="P 1" unit_cell=conventional occupancy="_JSON {\"0\": {\"Li\": 1}, \"1\": {\"Li\": 1}, \"2\": {\"Li\": 1}, \"3\": {\"Li\": 1}, \"4\": {\"Li\": 1}, \"5\": {\"Li\": 1}, \"6\": {\"Li\": 1}, \"7\": {\"Li\": 1}, \"8\": {\"Li\": 1}, \"9\": {\"Li\": 1}, \"10\": {\"Li\": 1}, \"11\": {\"Li\": 1}, \"12\": {\"P\": 1}, \"13\": {\"P\": 1}, \"14\": {\"P\": 1}, \"15\": {\"P\": 1}, \"16\": {\"S\": 1}, \"17\": {\"S\": 1}, \"18\": {\"S\": 1}, \"19\": {\"S\": 1}, \"20\": {\"S\": 1}, \"21\": {\"S\": 1}, \"22\": {\"S\": 1}, \"23\": {\"S\": 1}, \"24\": {\"S\": 1}, \"25\": {\"S\": 1}, \"26\": {\"S\": 1}, \"27\": {\"S\": 1}, \"28\": {\"S\": 1}, \"29\": {\"S\": 1}, \"30\": {\"S\": 1}, \"31\": {\"S\": 1}}" energy=-140.31869506835938 free_energy=-140.31869506835938 stress="-0.007170635275542736 4.487807458986026e-09 1.0021052876396652e-09 4.487807458986026e-09 -0.008259429596364498 6.1128062611714995e-09 1.0021052876396652e-09 6.1128062611714995e-09 -0.005266309250146151" pbc="T T T"
Li       2.40329652       0.26860172       4.33400832        0      -0.02603561       0.00549115      -0.00432149
Li       3.76846941       7.74999687       8.69880992        1       0.02603680      -0.00549150       0.00432248
Li       5.48917948       7.74999687       2.18240080        2      -0.02603578      -0.00549081       0.00432277
Li       0.68258645       0.26860172      10.85041744        3       0.02603529       0.00549196      -0.00431943
Li       3.76846941       4.27790102       8.69880992        4       0.02603642       0.00549131       0.00432253
Li       2.40329652       3.74069757       4.33400832        5      -0.02603560      -0.00549105      -0.00432127
Li       0.68258645       3.74069757      10.85041744        6       0.02603618      -0.00549175      -0.00432010
Li       5.48917948       4.27790102       2.18240080        7      -0.02603589       0.00549092       0.00432269
Li       3.08588297       0.00000000       0.00000000        8      -0.00000054      -0.00000107      -0.00000093
Li       0.00000000       0.00000000       6.51640912        9      -0.00000012      -0.00000013       0.00000085
Li       3.08588297       4.00929929       0.00000000       10      -0.00000035       0.00000068      -0.00000105
Li       0.00000000       4.00929929       6.51640912       11       0.00000071       0.00000158       0.00000075
P        0.94051010       2.00464965       1.16601784       12      -0.02067161      -0.00000100       0.02376011
P        5.23125583       6.01394894      11.86680040       13       0.02066623       0.00000097      -0.02375933
P        4.02639307       6.01394894       5.35039128       14      -0.02066821       0.00000196      -0.02375638
P        2.14537286       2.00464965       7.68242696       15       0.02066898       0.00000004       0.02375925
S        5.08970823       2.00464965       1.30575389       16      -0.25450695      -0.00000068       0.01679002
S        1.08205770       6.01394894      11.72706435       17       0.25450766      -0.00000058      -0.01679146
S        2.00382526       6.01394894       5.21065523       18      -0.25450605      -0.00000058      -0.01679290
S        4.16794067       2.00464965       7.82216301       19       0.25450066      -0.00000033       0.01679056
S        1.68132889       2.00464965      12.25955363       20       0.10912287       0.00000019      -0.16719684
S        4.49043704       6.01394894       0.77326461       21      -0.10912105       0.00000034       0.16718197
S        4.76721186       6.01394894       7.28967373       22       0.10912091      -0.00000008       0.16717935
S        1.40455407       2.00464965       5.74314451       23      -0.10911947      -0.00000011      -0.16718103
S        1.67233151       0.29287049       2.00524453       24       0.13957816      -0.21272567       0.08709887
S        4.49943442       7.72572810      11.02757371       25      -0.13957548       0.21272489      -0.08709274
S        4.75821447       7.72572810       4.51116459       26       0.13957569       0.21272440      -0.08709146
S        1.41355146       0.29287049       8.52165365       27      -0.13957699      -0.21272148       0.08709057
S        4.49943442       4.30216979      11.02757371       28      -0.13957681      -0.21272527      -0.08709460
S        1.67233151       3.71642880       2.00524453       29       0.13957863       0.21272662       0.08710009
S        1.41355146       3.71642880       8.52165365       30      -0.13957615       0.21272075       0.08709121
S        4.75821447       4.30216979       4.51116459       31       0.13957734      -0.21272576      -0.08709295
