4
Lattice="3.128588 0.0 0.0 -1.5642939988088433 2.709436998432005 0.0 0.0 0.0 5.016955" Properties=species:S:1:pos:R:3:spacegroup_kinds:I:1:momenta:R:3:forces:R:3 spacegroup="P 1" unit_cell=conventional occupancy="_JSON {\"0\": {\"Al\": 1}, \"1\": {\"Al\": 1}, \"2\": {\"N\": 1}, \"3\": {\"N\": 1}}" energy=-29.623743057250977 free_energy=-29.623743057250977 stress="0.00430040480569005 -0.008672579191625118 0.002881911350414157 -0.008672579191625118 -0.006943749263882637 -0.004434606991708279 0.002881911350414157 -0.004434606991708279 -0.014839181676506996" pbc="T T T"
Al       1.54321203       0.89379623       2.53645983        0      -0.00705440      -0.41529122       0.79444912      -0.25249943       0.39302921      -0.87834525
Al       0.03580900       1.79893951       4.98957808        1       0.09337903      -0.29525172      -0.61191864      -0.16601117       0.14058173       0.62745124
N        1.59619758       0.90645098       4.40111845        2      -0.02189778       1.09350692       0.27120784      -0.08899774      -0.09593774       0.34911096
N       -0.05911260       1.83464208       1.91219259        3      -0.06442686      -0.38296397      -0.45373833       0.50750840      -0.43767306      -0.09821731
