4
Lattice="3.128588 0.0 0.0 -1.5642939988088433 2.709436998432005 0.0 0.0 0.0 5.016955" Properties=species:S:1:pos:R:3:spacegroup_kinds:I:1:momenta:R:3:forces:R:3 spacegroup="P 1" unit_cell=conventional occupancy="_JSON {\"0\": {\"Al\": 1}, \"1\": {\"Al\": 1}, \"2\": {\"N\": 1}, \"3\": {\"N\": 1}}" energy=-29.673717498779297 free_energy=-29.673717498779297 stress="-0.0022253545466810465 -1.3505241440725513e-06 -1.8616123753645297e-08 -1.3505241440725513e-06 -0.0022274665534496307 -9.492439723146617e-09 -1.8616123753645297e-08 -9.492439723146617e-09 -0.00545376306399703" pbc="T T T"
Al       1.56429556       0.90314476       2.50490041        0       0.68448204       0.53670047       0.91071479      -0.00003509       0.00001945       0.00553151
Al      -0.00000156       1.80629224       5.01337791        1       0.31075784       0.39520501      -1.87833745       0.00003456      -0.00002012       0.00552353
N        1.56429556       0.90314476       4.41849749        2      -0.23293981      -0.79739853      -0.40745139      -0.00003626       0.00002131      -0.00553015
N       -0.00000156       1.80629224       1.91001999        3      -0.76230006      -0.13450696       1.37507406       0.00003680      -0.00002057      -0.00552484
4
Lattice="3.128588 0.0 0.0 -1.5642939988088433 2.709436998432005 0.0 0.0 0.0 5.016955" Properties=species:S:1:pos:R:3:spacegroup_kinds:I:1:momenta:R:3:forces:R:3 spacegroup="P 1" unit_cell=conventional occupancy="_JSON {\"0\": {\"Al\": 1}, \"1\": {\"Al\": 1}, \"2\": {\"N\": 1}, \"3\": {\"N\": 1}}" energy=-29.43359375 free_energy=-29.43359375 stress="-0.013773343525826931 -0.01644645445048809 0.012948804534971714 -0.01644645445048809 -0.023968851193785667 0.009969741106033325 0.012948804534971714 0.009969741106033325 -0.012059492990374565" pbc="T T T"
Al       1.60246141       0.92231284       2.54150848        0       0.57498213      -0.13491966       1.02882479      -1.31301439      -0.49033362      -0.87831259
Al       0.00328788       1.81111139       4.94718775        1      -0.44725810       0.00118056      -1.07867322      -0.30154115      -0.59423369       1.18011820
N        1.53678588       0.85870780       4.38099594        2       0.14052042      -0.46066725       0.20203872       0.28490689       0.67984623       1.25553679
N       -0.05228245       1.80432670       2.00436660        3      -0.26824444       0.59440635      -0.15219032       1.32964849       0.40472096      -1.55734229
4
Lattice="3.128588 0.0 0.0 -1.5642939988088433 2.709436998432005 0.0 0.0 0.0 5.016955" Properties=species:S:1:pos:R:3:spacegroup_kinds:I:1:momenta:R:3:forces:R:3 spacegroup="P 1" unit_cell=conventional occupancy="_JSON {\"0\": {\"Al\": 1}, \"1\": {\"Al\": 1}, \"2\": {\"N\": 1}, \"3\": {\"N\": 1}}" energy=-29.5672550201416 free_energy=-29.5672550201416 stress="0.01291592139750719 0.0017024889821186662 0.003579377895221114 0.0017024889821186662 -0.025857003405690193 -0.005369181279093027 0.003579377895221114 -0.005369181279093027 -0.011435265652835369" pbc="T T T"
Al       1.59598186       0.90138486       2.55101265        0      -0.85003991      -0.64755194      -0.41676290      -0.33522815       0.74370509      -1.26921308
Al      -0.01311799       1.79082858       4.96769657        1      -0.24557008      -0.74327766       1.65595768      -0.18280342      -0.17026737       1.21499705
N        1.52960408       0.86779352       4.41996341        2       0.16413051       0.60763563       0.63654565       0.31887782       0.39321333      -0.09056857
N       -0.00060095       1.87475187       1.90756520        3       0.93147947       0.78319400      -1.87574050       0.19915383      -0.96665096       0.14478439
4
Lattice="3.128588 0.0 0.0 -1.5642939988088433 2.709436998432005 0.0 0.0 0.0 5.016955" Properties=species:S:1:pos:R:3:spacegroup_kinds:I:1:momenta:R:3:forces:R:3 spacegroup="P 1" unit_cell=conventional occupancy="_JSON {\"0\": {\"Al\": 1}, \"1\": {\"Al\": 1}, \"2\": {\"N\": 1}, \"3\": {\"N\": 1}}" energy=-29.406274795532227 free_energy=-29.406274795532227 stress="0.010688806883990765 0.016498178243637085 -0.008164036087691784 0.016498178243637085 -0.009423257783055305 -0.015553977340459824 -0.008164036087691784 -0.015553977340459824 -0.061254095286130905" pbc="T T T"
Al       1.53423928       0.87298460       2.51007452        0      -1.60925376       0.09619188      -1.03262332       0.74608982       1.00298381       0.03482359
Al      -0.01349003       1.78470223       5.05709165        1       0.21561238      -0.04339773       1.72443316       0.02271078       0.40732908      -1.66436887
N        1.55208974       0.92225131       4.42203507        2       0.38659395       0.63935795      -0.93002926       0.04495934      -0.39009672      -0.56986070
N        0.09667397       1.88681819       1.81230438        3       1.00704744      -0.69215203       0.23821938      -0.81376016      -1.02021646       2.19940567
4
Lattice="3.128588 0.0 0.0 -1.5642939988088433 2.709436998432005 0.0 0.0 0.0 5.016955" Properties=species:S:1:pos:R:3:spacegroup_kinds:I:1:momenta:R:3:forces:R:3 spacegroup="P 1" unit_cell=conventional occupancy="_JSON {\"0\": {\"Al\": 1}, \"1\": {\"Al\": 1}, \"2\": {\"N\": 1}, \"3\": {\"N\": 1}}" energy=-29.201902389526367 free_energy=-29.201902389526367 stress="-0.02644084021449089 0.03815528377890587 -0.03138260543346405 0.03815528377890587 -0.004877483006566763 0.0015437343390658498 -0.03138260543346405 0.0015437343390658498 -0.051819853484630585" pbc="T T T"
Al       1.49382402       0.87740191       2.48150488        0      -0.08661634      -0.02748799       0.25595541       2.48428226      -0.46186295       1.22611690
Al      -0.02076736       1.79337853       5.08843296        1       0.00716729       0.60209047      -1.27068287       0.64723361       0.57433516      -2.36003947
N        1.60157222       0.96971684       4.33361321        2       0.49437279       0.53651052      -0.17473349      -0.53882742      -0.70145339       1.74608850
N        0.13924906       1.81421456       1.89535165        3      -0.41492377      -1.11111299       1.18946088      -2.59268856       0.58898127      -0.61216599
4
Lattice="3.128588 0.0 0.0 -1.5642939988088433 2.709436998432005 0.0 0.0 0.0 5.016955" Properties=species:S:1:pos:R:3:spacegroup_kinds:I:1:momenta:R:3:forces:R:3 spacegroup="P 1" unit_cell=conventional occupancy="_JSON {\"0\": {\"Al\": 1}, \"1\": {\"Al\": 1}, \"2\": {\"N\": 1}, \"3\": {\"N\": 1}}" energy=-29.574628829956055 free_energy=-29.574628829956055 stress="-0.02361801266670227 -0.014321385882794857 -0.011128050275146961 -0.014321385882794857 0.015030044130980968 -0.0028545688837766647 -0.011128050275146961 -0.0028545688837766647 -0.014440378174185753" pbc="T T T"
Al       1.53421961       0.88369268       2.53780580        0       1.55944031       0.36820921       1.55971034       0.29264247      -0.24000411      -0.91367382
Al      -0.00048006       1.82107765       4.98837342        1       1.01688595       0.86374306      -2.47525495       0.94369543       0.52251351       0.78485966
N        1.63583966       0.96584650       4.40663187        2      -0.31021923      -0.52489299       1.27117380      -1.15103817      -0.78906852       0.05688049
N       -0.01177522       1.75252282       1.90648729        3      -2.26610700      -0.70705926      -0.35562927      -0.08529967       0.50655913       0.07193366
4
Lattice="3.128588 0.0 0.0 -1.5642939988088433 2.709436998432005 0.0 0.0 0.0 5.016955" Properties=species:S:1:pos:R:3:spacegroup_kinds:I:1:momenta:R:3:forces:R:3 spacegroup="P 1" unit_cell=conventional occupancy="_JSON {\"0\": {\"Al\": 1}, \"1\": {\"Al\": 1}, \"2\": {\"N\": 1}, \"3\": {\"N\": 1}}" energy=-29.372072219848633 free_energy=-29.372072219848633 stress="-0.005629729479551315 -0.018719395622611046 0.015849445015192032 -0.018719395622611046 -0.03227292746305466 0.017212215811014175 0.015849445015192032 0.017212215811014175 -0.007298099342733622" pbc="T T T"
Al       1.57072833       0.88046443       2.56331976        0      -0.00039247      -0.37629476      -0.57844060      -1.34386468      -0.44065824      -1.50707579
Al       0.05055073       1.86456080       4.94968568        1       0.52727017       0.77034126       1.04960202      -0.49129039      -1.36433721       1.82584751
N        1.58204798       0.88176662       4.44992392        2      -0.27832248      -1.02263362      -0.55459303       0.15003715       1.16376126      -0.85894805
N       -0.12661084       1.75915453       1.88869866        3      -0.24855518       0.62858716       0.08343150       1.68511772       0.64123422       0.54017669
4
Lattice="3.128588 0.0 0.0 -1.5642939988088433 2.709436998432005 0.0 0.0 0.0 5.016955" Properties=species:S:1:pos:R:3:spacegroup_kinds:I:1:momenta:R:3:forces:R:3 spacegroup="P 1" unit_cell=conventional occupancy="_JSON {\"0\": {\"Al\": 1}, \"1\": {\"Al\": 1}, \"2\": {\"N\": 1}, \"3\": {\"N\": 1}}" energy=-29.596923828125 free_energy=-29.596923828125 stress="0.015976427122950554 -0.004506250377744436 0.00601872056722641 -0.004506250377744436 -0.02549927309155464 -0.004597063641995192 0.00601872056722641 -0.004597063641995192 -0.010013946332037449" pbc="T T T"
Al       1.53284805       0.86390067       2.51395077        0      -1.59464517      -0.16469710      -1.74991322      -0.27820438       0.89915633      -0.15420353
Al       0.06317842       1.83227866       5.00948378        1       0.38439974      -1.80666599       1.59449933      -0.58708727      -0.41271648       0.16724940
N        1.58572477       0.89623787       4.41422576        2       0.14193204       1.12964938      -0.09119163       0.25704244       0.38076711       0.00228050
N       -0.08152103       1.83862419       1.90381443        3       1.06831343       0.84171372       0.24660543       0.60824931      -0.86720693      -0.01532605
4
Lattice="3.128588 0.0 0.0 -1.5642939988088433 2.709436998432005 0.0 0.0 0.0 5.016955" Properties=species:S:1:pos:R:3:spacegroup_kinds:I:1:momenta:R:3:forces:R:3 spacegroup="P 1" unit_cell=conventional occupancy="_JSON {\"0\": {\"Al\": 1}, \"1\": {\"Al\": 1}, \"2\": {\"N\": 1}, \"3\": {\"N\": 1}}" energy=-29.462553024291992 free_energy=-29.462553024291992 stress="-0.005697004497051239 0.010849393904209137 -0.003906610421836376 0.010849393904209137 -0.01913357526063919 -0.012703240849077702 -0.003906610421836376 -0.012703240849077702 -0.011871431954205036" pbc="T T T"
Al       1.48347329       0.88264393       2.44527930        0      -0.30454503       1.01149507      -0.60004511       0.88393140       0.95768327       1.70777047
Al       0.06164409       1.77681260       5.07306069        1      -0.86715242      -0.75617390       0.43048921      -0.30080605       0.71655333      -1.72280037
N        1.61717712       0.94947184       4.40498426        2       0.38645853       0.04830077       0.18623285      -0.07234003      -0.67486060       0.48910743
N       -0.01486930       1.85626151       1.92266699        3       0.78523894      -0.30362198      -0.01667702      -0.51078546      -0.99937600      -0.47407717
4
Lattice="3.128588 0.0 0.0 -1.5642939988088433 2.709436998432005 0.0 0.0 0.0 5.016955" Properties=species:S:1:pos:R:3:spacegroup_kinds:I:1:momenta:R:3:forces:R:3 spacegroup="P 1" unit_cell=conventional occupancy="_JSON {\"0\": {\"Al\": 1}, \"1\": {\"Al\": 1}, \"2\": {\"N\": 1}, \"3\": {\"N\": 1}}" energy=-29.518747329711914 free_energy=-29.518747329711914 stress="-0.023370837792754173 0.006539966445416212 -0.016098299995064735 0.006539966445416212 0.006697376724332571 -0.00048240384785458446 -0.016098299995064735 -0.00048240384785458446 -0.022161195054650307" pbc="T T T"
Al       1.50607637       0.94974319       2.46463696        0       1.15921315       0.62635264       1.50689858       1.24247444      -0.60704660       1.15697289
Al       0.01335471       1.75088042       5.06242873        1      -0.91111990       0.14825251      -0.88962552       0.51474756       0.69610631      -1.43088746
N        1.62637957       0.90489619       4.42127857        2      -0.14223572      -0.64065048       0.21498378      -0.71771932      -0.51824188      -0.07984956
N        0.02538011       1.82158365       1.88963022        3      -0.10585752      -0.13395464      -0.83225686      -1.03950250       0.42918253       0.35376441
4
Lattice="3.128588 0.0 0.0 -1.5642939988088433 2.709436998432005 0.0 0.0 0.0 5.016955" Properties=species:S:1:pos:R:3:spacegroup_kinds:I:1:momenta:R:3:forces:R:3 spacegroup="P 1" unit_cell=conventional occupancy="_JSON {\"0\": {\"Al\": 1}, \"1\": {\"Al\": 1}, \"2\": {\"N\": 1}, \"3\": {\"N\": 1}}" energy=-29.605010986328125 free_energy=-29.605010986328125 stress="0.0015961163444444537 -0.00678584398701787 -0.0030953476671129465 -0.00678584398701787 0.0017805728130042553 0.0017245446797460318 -0.0030953476671129465 0.0017245446797460318 -0.02311493270099163" pbc="T T T"
Al       1.56693924       0.93861032       2.54470905        0       1.44875330      -0.98943798       1.48437325      -0.01659445      -0.29131517      -1.20299518
Al      -0.01304568       1.78057347       4.99752453        1       0.01689773       1.11024940      -1.70730013       0.38438785       0.02358187       0.50759375
N        1.58384200       0.87104970       4.42155573        2      -0.67927452      -0.02704937      -0.19037158      -0.39236957       0.15178001      -0.39792645
N        0.00122215       1.81989277       1.85992054        3      -0.78637651      -0.09376207       0.41329856       0.02457612       0.11595336       1.09332800
4
Lattice="3.128588 0.0 0.0 -1.5642939988088433 2.709436998432005 0.0 0.0 0.0 5.016955" Properties=species:S:1:pos:R:3:spacegroup_kinds:I:1:momenta:R:3:forces:R:3 spacegroup="P 1" unit_cell=conventional occupancy="_JSON {\"0\": {\"Al\": 1}, \"1\": {\"Al\": 1}, \"2\": {\"N\": 1}, \"3\": {\"N\": 1}}" energy=-29.47020721435547 free_energy=-29.47020721435547 stress="0.003203091910108924 -0.01780151017010212 0.011838377453386784 -0.01780151017010212 -0.04134911671280861 0.007359933108091354 0.011838377453386784 0.007359933108091354 -0.00516042485833168" pbc="T T T"
Al       1.62755627       0.89950080       2.54516750        0       1.04970748      -0.99981928      -0.80202751      -1.41065264       0.15933211      -0.91778874
Al      -0.00757057       1.81703572       4.95606283        1      -0.03758001       0.11959856      -0.16512872      -0.26242548      -0.84351575       1.41445827
N        1.52756232       0.85151204       4.42065483        2      -0.42752169       0.29023049      -0.07965778       0.31765729       0.98894656      -0.00115468
N       -0.06966663       1.84442111       1.93994537        3      -0.58460577       0.58999025       1.04681412       1.35542107      -0.30476302      -0.49551466
4
Lattice="3.128588 0.0 0.0 -1.5642939988088433 2.709436998432005 0.0 0.0 0.0 5.016955" Properties=species:S:1:pos:R:3:spacegroup_kinds:I:1:momenta:R:3:forces:R:3 spacegroup="P 1" unit_cell=conventional occupancy="_JSON {\"0\": {\"Al\": 1}, \"1\": {\"Al\": 1}, \"2\": {\"N\": 1}, \"3\": {\"N\": 1}}" energy=-29.45298957824707 free_energy=-29.45298957824707 stress="-0.013225206173956394 -0.02375006675720215 0.00791146419942379 -0.02375006675720215 -0.047931961715221405 -0.007333364803344011 0.00791146419942379 -0.007333364803344011 0.02863301709294319" pbc="T T T"
Al       1.63184039       0.85684030       2.46693552        0      -0.97589018      -0.55899546      -1.34838303      -1.39009905       1.11026239       1.17303813
Al      -0.02377747       1.82170280       4.98999595        1      -0.28018881       0.45883510       1.28013492      -0.08532438       0.08283344       0.34697315
N        1.52792701       0.92957750       4.44479003        2       0.11446508       0.97873246       0.08012599       0.22036010      -0.17398632       0.05599181
N       -0.04718866       1.83921502       2.00086010        3       1.14161391      -0.87857209      -0.01187784       1.25506353      -1.01910961      -1.57600307
4
Lattice="3.128588 0.0 0.0 -1.5642939988088433 2.709436998432005 0.0 0.0 0.0 5.016955" Properties=species:S:1:pos:R:3:spacegroup_kinds:I:1:momenta:R:3:forces:R:3 spacegroup="P 1" unit_cell=conventional occupancy="_JSON {\"0\": {\"Al\": 1}, \"1\": {\"Al\": 1}, \"2\": {\"N\": 1}, \"3\": {\"N\": 1}}" energy=-29.536317825317383 free_energy=-29.536317825317383 stress="-0.019857333973050117 0.01382896862924099 -0.00571737065911293 0.01382896862924099 -0.003163933753967285 -0.001670995494350791 -0.00571737065911293 -0.001670995494350791 -0.0062606907449662685" pbc="T T T"
Al       1.56291510       0.86348348       2.43836899        0      -1.44558764       0.38889130       0.34074907       0.67285722       0.11609274       1.45909441
Al      -0.01834144       1.83613135       5.05736567        1       0.19731534      -0.00921551       1.04742186       0.06595252       0.15003651      -1.19267392
N        1.54726698       0.95741149       4.47045641        2      -0.01024052       0.05685037       0.14844022       0.09761418      -0.44420981      -0.65174633
N        0.05576966       1.77068665       1.90062725        3       1.25851284      -0.43652612      -1.53661110      -0.83642381       0.17808053       0.38532582
4
Lattice="3.128588 0.0 0.0 -1.5642939988088433 2.709436998432005 0.0 0.0 0.0 5.016955" Properties=species:S:1:pos:R:3:spacegroup_kinds:I:1:momenta:R:3:forces:R:3 spacegroup="P 1" unit_cell=conventional occupancy="_JSON {\"0\": {\"Al\": 1}, \"1\": {\"Al\": 1}, \"2\": {\"N\": 1}, \"3\": {\"N\": 1}}" energy=-29.5310001373291 free_energy=-29.5310001373291 stress="-0.01829385757446289 0.015707632526755333 -0.011607700027525425 0.015707632526755333 0.0031479420140385628 0.004605620168149471 -0.011607700027525425 0.004605620168149471 -0.01725897751748562" pbc="T T T"
Al       1.54701078       0.87273546       2.46070915        0       0.71855725      -0.11584347       0.49435273       1.07476985      -0.28505746       1.06925452
Al      -0.01761629       1.84389394       5.05391120        1       0.19346415       0.17720483      -0.69190074       0.23187605      -0.07941999      -1.16825140
N        1.56395349       0.94331122       4.45961396        2       0.32487423      -0.12409486      -0.51346236      -0.11547090      -0.20503177      -0.72920150
N        0.06831352       1.75176766       1.87546337        3      -1.23689562       0.06273349       0.71101039      -1.19117475       0.56950939       0.82819831
4
Lattice="3.128588 0.0 0.0 -1.5642939988088433 2.709436998432005 0.0 0.0 0.0 5.016955" Properties=species:S:1:pos:R:3:spacegroup_kinds:I:1:momenta:R:3:forces:R:3 spacegroup="P 1" unit_cell=conventional occupancy="_JSON {\"0\": {\"Al\": 1}, \"1\": {\"Al\": 1}, \"2\": {\"N\": 1}, \"3\": {\"N\": 1}}" energy=-29.613210678100586 free_energy=-29.613210678100586 stress="-0.008381483145058155 -0.004276773892343044 0.00549294613301754 -0.004276773892343044 -0.0139370858669281 0.0014804370002821088 0.00549294613301754 0.0014804370002821088 0.012475311756134033" pbc="T T T"
Al       1.57767911       0.87033378       2.48321562        0       0.42145878      -0.10086020       0.75449428      -0.50598955       0.14215454       0.64867657
Al       0.00878679       1.84488741       5.00616580        1       0.94842501       0.04829661      -0.67234743      -0.28190961      -0.37569696       0.05942783
N        1.54733735       0.91884310       4.41695259        2      -0.50233564      -0.06173822      -0.86681587       0.26756731       0.16352516       0.34766638
N       -0.02491939       1.77881441       1.96659665        3      -0.86754813       0.11430179       0.78466900       0.52033186       0.07001723      -1.05577087
4
Lattice="3.128588 0.0 0.0 -1.5642939988088433 2.709436998432005 0.0 0.0 0.0 5.016955" Properties=species:S:1:pos:R:3:spacegroup_kinds:I:1:momenta:R:3:forces:R:3 spacegroup="P 1" unit_cell=conventional occupancy="_JSON {\"0\": {\"Al\": 1}, \"1\": {\"Al\": 1}, \"2\": {\"N\": 1}, \"3\": {\"N\": 1}}" energy=-29.557838439941406 free_energy=-29.557838439941406 stress="-0.01636386662721634 -0.002947468077763915 0.012903649359941483 -0.002947468077763915 -0.006207589525729418 0.0015375198563560843 0.012903649359941483 0.0015375198563560843 -0.002714608097448945" pbc="T T T"
Al       1.59068815       0.88023428       2.52274586        0      -0.41625622       0.17887008       0.33160854      -0.90884304      -0.14030671      -0.36867812
Al       0.01872289       1.83477378       4.97781992        1       0.14973964      -0.20763080      -0.17578567      -0.72829622      -0.10046417       0.72652483
N        1.52039170       0.92489996       4.39464376        2       0.19754394       0.25939934       0.47781776       0.72475922      -0.09604897       0.71574235
N       -0.04216861       1.77342026       1.96745696        3       0.06897256      -0.23063862      -0.63364063       0.91237998       0.33682007      -1.07358897
4
Lattice="3.128588 0.0 0.0 -1.5642939988088433 2.709436998432005 0.0 0.0 0.0 5.016955" Properties=species:S:1:pos:R:3:spacegroup_kinds:I:1:momenta:R:3:forces:R:3 spacegroup="P 1" unit_cell=conventional occupancy="_JSON {\"0\": {\"Al\": 1}, \"1\": {\"Al\": 1}, \"2\": {\"N\": 1}, \"3\": {\"N\": 1}}" energy=-29.621110916137695 free_energy=-29.621110916137695 stress="-0.021500663831830025 0.005276249721646309 -0.003267474239692092 0.005276249721646309 0.010658055543899536 0.00192495237570256 -0.003267474239692092 0.00192495237570256 -0.0015899130376055837" pbc="T T T"
Al       1.54767652       0.89587760       2.50832859        0      -0.85809977       0.46896484      -1.00003011       0.39160419      -0.39029190      -0.15032412
Al       0.00665800       1.82067515       5.00342495        1      -0.72966913      -0.11082624       1.46536716      -0.00949978       0.22697079       0.34862792
N        1.57185930       0.94293301       4.45440719        2       0.62349838      -0.37686528       0.64593152      -0.01969738      -0.43335301      -0.83889902
N        0.01256034       1.75229423       1.88600534        3       0.96427045       0.01872669      -1.11126855      -0.36240688       0.59667414       0.64059532
4
Lattice="3.128588 0.0 0.0 -1.5642939988088433 2.709436998432005 0.0 0.0 0.0 5.016955" Properties=species:S:1:pos:R:3:spacegroup_kinds:I:1:momenta:R:3:forces:R:3 spacegroup="P 1" unit_cell=conventional occupancy="_JSON {\"0\": {\"Al\": 1}, \"1\": {\"Al\": 1}, \"2\": {\"N\": 1}, \"3\": {\"N\": 1}}" energy=-29.520856857299805 free_energy=-29.520856857299805 stress="-0.014047587290406227 0.01182097289711237 -0.014255579560995102 0.01182097289711237 -0.005614772439002991 0.009361431002616882 -0.014255579560995102 0.009361431002616882 -0.019571062177419662" pbc="T T T"
Al       1.52999430       0.91403914       2.46474573        0       0.09545052      -0.23101222      -1.18071348       1.21875644      -0.63577175       0.99290258
Al      -0.00890654       1.82180735       5.05208964        1       0.31216968      -0.10747428       0.45537724       0.39472812      -0.38378471      -1.12710381
N        1.59437709       0.88605554       4.45928984        2      -0.04799036      -0.53350349      -0.20523252      -0.40810561       0.35578975      -0.79021668
N        0.05384450       1.77207219       1.87145001        3      -0.35962983       0.87199000       0.93056884      -1.20537901       0.66376698       0.92441767
4
Lattice="3.128588 0.0 0.0 -1.5642939988088433 2.709436998432005 0.0 0.0 0.0 5.016955" Properties=species:S:1:pos:R:3:spacegroup_kinds:I:1:momenta:R:3:forces:R:3 spacegroup="P 1" unit_cell=conventional occupancy="_JSON {\"0\": {\"Al\": 1}, \"1\": {\"Al\": 1}, \"2\": {\"N\": 1}, \"3\": {\"N\": 1}}" energy=-29.618783950805664 free_energy=-29.618783950805664 stress="0.010117742232978344 -0.001821837853640318 -0.0018730206647887826 -0.001821837853640318 -0.024783005937933922 0.004591087345033884 -0.0018730206647887826 0.004591087345033884 2.6419455025461502e-05" pbc="T T T"
Al       1.53818032       0.90928016       2.47247634        0       0.23228534      -0.27447245       1.41733277       0.21200997       0.18702224       0.85530776
Al       0.01802692       1.81430746       5.03506514        1       0.60360822      -0.42930321      -1.11140699       0.03760158      -0.69444072      -0.55142659
N        1.59518011       0.85128046       4.42414645        2       0.09084633       0.02420738      -0.77345507      -0.19470245       0.84070480       0.01228122
N       -0.01452981       1.83034436       1.92467355        3      -0.92673991       0.67956828       0.46752933      -0.05490913      -0.33328611      -0.31616303
4
Lattice="3.128588 0.0 0.0 -1.5642939988088433 2.709436998432005 0.0 0.0 0.0 5.016955" Properties=species:S:1:pos:R:3:spacegroup_kinds:I:1:momenta:R:3:forces:R:3 spacegroup="P 1" unit_cell=conventional occupancy="_JSON {\"0\": {\"Al\": 1}, \"1\": {\"Al\": 1}, \"2\": {\"N\": 1}, \"3\": {\"N\": 1}}" energy=-29.623743057250977 free_energy=-29.623743057250977 stress="0.00430040480569005 -0.008672579191625118 0.002881911350414157 -0.008672579191625118 -0.006943749263882637 -0.004434606991708279 0.002881911350414157 -0.004434606991708279 -0.014839181676506996" pbc="T T T"
Al       1.54321203       0.89379623       2.53645983        0      -0.00705440      -0.41529122       0.79444912      -0.25249943       0.39302921      -0.87834525
Al       0.03580900       1.79893951       4.98957808        1       0.09337903      -0.29525172      -0.61191864      -0.16601117       0.14058173       0.62745124
N        1.59619758       0.90645098       4.40111845        2      -0.02189778       1.09350692       0.27120784      -0.08899774      -0.09593774       0.34911096
N       -0.05911260       1.83464208       1.91219259        3      -0.06442686      -0.38296397      -0.45373833       0.50750840      -0.43767306      -0.09821731
