4
Lattice="3.128588 0.0 0.0 -1.5642939988088433 2.709436998432005 0.0 0.0 0.0 5.016955" Properties=species:S:1:pos:R:3:spacegroup_kinds:I:1:forces:R:3 spacegroup="P 1" unit_cell=conventional occupancy="_JSON {\"0\": {\"Al\": 1}, \"1\": {\"Al\": 1}, \"2\": {\"N\": 1}, \"3\": {\"N\": 1}}" energy=-29.673717498779297 free_energy=-29.673717498779297 stress="-0.0022253545466810465 -1.3505241440725513e-06 -1.8616123753645297e-08 -1.3505241440725513e-06 -0.0022274665534496307 -9.492439723146617e-09 -1.8616123753645297e-08 -9.492439723146617e-09 -0.00545376306399703" pbc="T T T"
Al       1.56429556       0.90314476       2.50490041        0      -0.00003509       0.00001945       0.00553151
Al      -0.00000156       1.80629224       5.01337791        1       0.00003456      -0.00002012       0.00552353
N        1.56429556       0.90314476       4.41849749        2      -0.00003626       0.00002131      -0.00553015
N       -0.00000156       1.80629224       1.91001999        3       0.00003680      -0.00002057      -0.00552484
