4
Lattice="3.128588 0.0 0.0 -1.5642939988088433 2.709436998432005 0.0 0.0 0.0 5.016955" Properties=species:S:1:pos:R:3:spacegroup_kinds:I:1:forces:R:3 spacegroup="P 1" unit_cell=conventional occupancy="_JSON {\"0\": {\"Al\": 1}, \"1\": {\"Al\": 1}, \"2\": {\"N\": 1}, \"3\": {\"N\": 1}}" energy=-29.673715591430664 free_energy=-29.673715591430664 stress="-0.0022253745701164007 -1.3939824157205294e-06 -2.692810951998581e-08 -1.3939824157205294e-06 -0.0022274910006672144 -6.382263251225595e-08 -2.692810951998581e-08 -6.382263251225595e-08 -0.0054536303505301476" pbc="T T T"
Al       1.56429556       0.90314476       2.50490041        0      -0.00003476       0.00001983       0.00553110
Al      -0.00000156       1.80629224       5.01337791        1       0.00003517      -0.00001825       0.00552473
N        1.56429556       0.90314476       4.41849749        2      -0.00003716       0.00001940      -0.00553026
N       -0.00000156       1.80629224       1.91001999        3       0.00003664      -0.00002094      -0.00552546
