56
Lattice="10.7619164 0.0 0.0 -9.665296305262016 4.732958053065482 0.0 -0.5483100463354086 -2.3664790220718444 10.484177494289693" Properties=species:S:1:pos:R:3:spacegroup_kinds:I:1:forces:R:3 spacegroup="P 1" unit_cell=conventional occupancy="_JSON {\"0\": {\"H\": 1}, \"1\": {\"H\": 1}, \"2\": {\"H\": 1}, \"3\": {\"H\": 1}, \"4\": {\"H\": 1}, \"5\": {\"H\": 1}, \"6\": {\"H\": 1}, \"7\": {\"H\": 1}, \"8\": {\"H\": 1}, \"9\": {\"H\": 1}, \"10\": {\"H\": 1}, \"11\": {\"H\": 1}, \"12\": {\"H\": 1}, \"13\": {\"H\": 1}, \"14\": {\"H\": 1}, \"15\": {\"H\": 1}, \"16\": {\"H\": 1}, \"17\": {\"H\": 1}, \"18\": {\"H\": 1}, \"19\": {\"H\": 1}, \"20\": {\"H\": 1}, \"21\": {\"H\": 1}, \"22\": {\"H\": 1}, \"23\": {\"H\": 1}, \"24\": {\"H\": 1}, \"25\": {\"H\": 1}, \"26\": {\"H\": 1}, \"27\": {\"H\": 1}, \"28\": {\"H\": 1}, \"29\": {\"H\": 1}, \"30\": {\"H\": 1}, \"31\": {\"H\": 1}, \"32\": {\"C\": 1}, \"33\": {\"C\": 1}, \"34\": {\"C\": 1}, \"35\": {\"C\": 1}, \"36\": {\"C\": 1}, \"37\": {\"C\": 1}, \"38\": {\"C\": 1}, \"39\": {\"C\": 1}, \"40\": {\"C\": 1}, \"41\": {\"C\": 1}, \"42\": {\"C\": 1}, \"43\": {\"C\": 1}, \"44\": {\"C\": 1}, \"45\": {\"C\": 1}, \"46\": {\"C\": 1}, \"47\": {\"C\": 1}, \"48\": {\"O\": 1}, \"49\": {\"O\": 1}, \"50\": {\"O\": 1}, \"51\": {\"O\": 1}, \"52\": {\"O\": 1}, \"53\": {\"O\": 1}, \"54\": {\"O\": 1}, \"55\": {\"O\": 1}}" energy=-315.21038818359375 free_energy=-315.21038818359375 stress="0.0014446129789575934 -0.0005629263469018042 9.62681454552694e-08 -0.0005629263469018042 -0.000854609243106097 -8.041877919140461e-08 9.62681454552694e-08 -8.041877919140461e-08 0.0015755979111418128" pbc="T T T"
H       -0.01146673       2.27735378       1.83228363        0       0.05954257      -0.00327684       0.06233882
H        0.46354042      -0.32622645       8.65189388        1      -0.05491740       0.02317593      -0.06235544
H        7.11783644      -0.62125596       5.76730110        2       0.06303547      -0.00415069      -0.05874512
H        3.54784286       0.20590514       4.71687609        3      -0.05845489       0.02398612       0.05874137
H        5.94073498       0.08912525       3.40980510        4      -0.05953977       0.00327651      -0.06233683
H        4.91741780       0.32622656       7.07437241        5       0.05491406      -0.02317051       0.06236540
H       -1.73687825       0.62125611       9.95896513        6      -0.06303792       0.00415844       0.05874485
H        2.38142539       2.16057389       0.52521268        7       0.05845502      -0.02398828      -0.05874366
H       -1.38551754       1.18149074       2.11598469        8      -0.01113733       0.08955154       0.00594891
H       -8.44966010       2.81824229       8.36819218        9       0.04931372       0.07553616      -0.00592643
H       -2.58205884       2.70548916       6.85853646       10       0.02489244       0.08117974       0.03102867
H       -6.70482302       3.66072964       3.62563947       11       0.01337876       0.08383641      -0.03101403
H       -3.44713061       1.18498829       3.12610408       12       0.01115884      -0.08955091      -0.00594452
H       -6.59659445       1.91471577       7.35807408       13      -0.04930712      -0.07554497       0.00593420
H       -1.70227922       2.02746896       8.86772962       14      -0.02490163      -0.08118932      -0.03099560
H       -7.79312146       3.43870742       1.61644925       15      -0.01337451      -0.08383934       0.03100621
H       -0.77623955       0.71965043       4.36329758       16      -0.01323478      -0.01213574       0.02308599
H        1.56195591       2.67141835       6.12088030       17       0.00653432      -0.01672817      -0.02309684
H       -0.46326720       1.89389614       6.16073603       18       0.01919653      -0.01968116       0.01018714
H        0.70065483      -0.86930480       4.32344242       19      -0.02583049      -0.00920781      -0.01018415
H        6.70550784       1.64682866       0.87879113       20       0.01323231       0.01213461      -0.02308459
H       -5.84629404       2.06153966       9.60538592       21      -0.00653600       0.01672599       0.02309482
H        5.84422538      -1.89389611       9.56553024       22      -0.01919030       0.01966929      -0.01017777
H       -5.53330302       3.23578383       0.91864627       23       0.02584181       0.00921575       0.01018932
H        0.25118892       0.51320652       1.94904363       24      -0.01400617      -0.01703797      -0.02868826
H       -0.54820845      -1.79509607       8.53513266       25       0.00518317      -0.02145597       0.02868164
H       -2.80824660       2.46883416       5.11321222       26      -0.03240833      -0.01272099       0.00990902
H       -6.60574339       3.34870703       5.37096440       27       0.02347666      -0.02566440      -0.00992761
H       -5.08383701       1.85327246       3.29304511       28       0.01400368       0.01703859       0.02868862
H       -4.83274950       1.79509621       7.19113351       29      -0.00520906       0.02144561      -0.02866481
H       -0.92778154       4.63060280       0.12887636       30       0.03240952       0.01272227      -0.00991061
H        2.32140525       1.38425108      10.35530180       31      -0.02347590       0.02567106       0.00991892
C       -0.12855714       1.44666455       3.84724418       32      -0.06474327      -0.02297691       0.02711093
C        0.20337421      -1.12376651       6.63693321       33       0.04808341      -0.04911388      -0.02706057
C       -0.77313051       2.84277401       5.69386794       34       0.01803446      -0.04222262       0.05795836
C        1.39625479      -0.15339355       4.79030937       35      -0.03474495      -0.02991286      -0.05791849
C        6.05782527       0.91981443       1.39484461       36       0.06475986       0.02297378      -0.02710620
C       -5.58433221       1.12376665       9.08933300       37      -0.04809053       0.04911397       0.02707681
C       -3.51120742       1.89018399      10.03239815       38      -0.01806813       0.04223073      -0.05796607
C        4.53301351       2.51987247       0.45177955       39       0.03474638       0.02992445       0.05790880
C       -0.32629464       1.35816528       2.34320609       40       0.01374650       0.00373642      -0.01267642
C        0.34204071      -1.29021283       8.14097363       41      -0.01071853       0.00946924       0.01263734
C       -2.26788797       3.05478921       5.86652617       42      -0.01084371       0.00948897      -0.01263933
C        2.83194262      -0.62035932       4.61765399       43       0.01386544       0.00375813       0.01261449
C        6.25556282       1.00831377       2.89888264       44      -0.01376748      -0.00373858       0.01266676
C       -5.72299918       1.29021260       7.58529264       45       0.01074435      -0.00945079      -0.01267792
C       -2.01645025       1.67816876       9.85974052       46       0.01086661      -0.00949088       0.01260918
C        3.09732574       2.98683830       0.62443475       47      -0.01388474      -0.00375947      -0.01259717
O       -0.42617556       2.75832690       4.28195552       48      -0.00160939      -0.01560129      -0.00606911
O        1.04750943      -0.07664205       6.20222131       49      -0.00535011      -0.01474479       0.00606339
O       -1.17299330      -0.80891944       6.27987374       50      -0.00940128      -0.01381713      -0.00193611
O        1.24603231       1.12411993       4.20430307       51       0.00225599      -0.01656370       0.00193473
O       -3.30985251       4.34111018       0.96013316       52       0.00160915       0.01560235       0.00606083
O        4.33344870       0.07664207       9.52404499       53       0.00535075       0.01474211      -0.00606562
O       -4.20796490       0.80891948       9.44639257       54       0.00941737       0.01382528       0.00193535
O        4.68323599       1.24235915       1.03778562       55      -0.00226584       0.01654597      -0.00193128
