4
Lattice="3.128588 0.0 0.0 -1.5642939988088433 2.709436998432005 0.0 0.0 0.0 5.016955" Properties=species:S:1:pos:R:3:spacegroup_kinds:I:1:forces:R:3 spacegroup="P 1" unit_cell=conventional occupancy="_JSON {\"0\": {\"Al\": 1}, \"1\": {\"Al\": 1}, \"2\": {\"N\": 1}, \"3\": {\"N\": 1}}" energy=-29.673715591430664 free_energy=-29.673715591430664 stress="-0.0022253096103668213 -1.376251020701602e-06 6.506179595078265e-09 -1.376251020701602e-06 -0.0022274665534496307 -5.7447866907978096e-08 6.506179595078265e-09 -5.7447866907978096e-08 -0.005453683435916901" pbc="T T T"
Al       1.56429556       0.90314476       2.50490041        0      -0.00003498       0.00002099       0.00553136
Al      -0.00000156       1.80629224       5.01337791        1       0.00003435      -0.00001926       0.00552437
N        1.56429556       0.90314476       4.41849749        2      -0.00003571       0.00001989      -0.00552992
N       -0.00000156       1.80629224       1.91001999        3       0.00003634      -0.00002154      -0.00552585
