56
Lattice="10.7619164 0.0 0.0 -9.665296305262016 4.732958053065482 0.0 -0.5483100463354086 -2.3664790220718444 10.484177494289693" Properties=species:S:1:pos:R:3:spacegroup_kinds:I:1:forces:R:3 spacegroup="P 1" unit_cell=conventional occupancy="_JSON {\"0\": {\"H\": 1}, \"1\": {\"H\": 1}, \"2\": {\"H\": 1}, \"3\": {\"H\": 1}, \"4\": {\"H\": 1}, \"5\": {\"H\": 1}, \"6\": {\"H\": 1}, \"7\": {\"H\": 1}, \"8\": {\"H\": 1}, \"9\": {\"H\": 1}, \"10\": {\"H\": 1}, \"11\": {\"H\": 1}, \"12\": {\"H\": 1}, \"13\": {\"H\": 1}, \"14\": {\"H\": 1}, \"15\": {\"H\": 1}, \"16\": {\"H\": 1}, \"17\": {\"H\": 1}, \"18\": {\"H\": 1}, \"19\": {\"H\": 1}, \"20\": {\"H\": 1}, \"21\": {\"H\": 1}, \"22\": {\"H\": 1}, \"23\": {\"H\": 1}, \"24\": {\"H\": 1}, \"25\": {\"H\": 1}, \"26\": {\"H\": 1}, \"27\": {\"H\": 1}, \"28\": {\"H\": 1}, \"29\": {\"H\": 1}, \"30\": {\"H\": 1}, \"31\": {\"H\": 1}, \"32\": {\"C\": 1}, \"33\": {\"C\": 1}, \"34\": {\"C\": 1}, \"35\": {\"C\": 1}, \"36\": {\"C\": 1}, \"37\": {\"C\": 1}, \"38\": {\"C\": 1}, \"39\": {\"C\": 1}, \"40\": {\"C\": 1}, \"41\": {\"C\": 1}, \"42\": {\"C\": 1}, \"43\": {\"C\": 1}, \"44\": {\"C\": 1}, \"45\": {\"C\": 1}, \"46\": {\"C\": 1}, \"47\": {\"C\": 1}, \"48\": {\"O\": 1}, \"49\": {\"O\": 1}, \"50\": {\"O\": 1}, \"51\": {\"O\": 1}, \"52\": {\"O\": 1}, \"53\": {\"O\": 1}, \"54\": {\"O\": 1}, \"55\": {\"O\": 1}}" energy=-315.21038818359375 free_energy=-315.21038818359375 stress="0.0014446001732721925 -0.0005629084771499038 9.749591356467135e-08 -0.0005629084771499038 -0.000854548707138747 -7.204764074231207e-08 9.749591356467135e-08 -7.204764074231207e-08 0.0015755720669403672" pbc="T T T"
H       -0.01146674       2.27735377       1.83228362        0       0.05954290      -0.00327662       0.06233877
H        0.46354043      -0.32622644       8.65189389        1      -0.05491720       0.02317633      -0.06235511
H        7.11783644      -0.62125595       5.76730110        2       0.06303583      -0.00415053      -0.05874534
H        3.54784285       0.20590513       4.71687607        3      -0.05845498       0.02398623       0.05874090
H        5.94073499       0.08912525       3.40980511        4      -0.05953952       0.00327749      -0.06233643
H        4.91741780       0.32622655       7.07437241        5       0.05491296      -0.02316954       0.06236473
H       -1.73687825       0.62125611       9.95896515        6      -0.06303744       0.00415863       0.05874411
H        2.38142539       2.16057390       0.52521270        7       0.05845523      -0.02398819      -0.05874350
H       -1.38551754       1.18149075       2.11598468        8      -0.01113751       0.08955158       0.00594890
H       -8.44966009       2.81824229       8.36819218        9       0.04931335       0.07553609      -0.00592631
H       -2.58205883       2.70548917       6.85853646       10       0.02489168       0.08117887       0.03102861
H       -6.70482303       3.66072964       3.62563947       11       0.01337842       0.08383635      -0.03101394
H       -3.44713061       1.18498829       3.12610408       12       0.01115962      -0.08955096      -0.00594418
H       -6.59659445       1.91471578       7.35807408       13      -0.04930676      -0.07554550       0.00593418
H       -1.70227922       2.02746897       8.86772962       14      -0.02490173      -0.08118919      -0.03099463
H       -7.79312147       3.43870742       1.61644925       15      -0.01337438      -0.08383963       0.03100606
H       -0.77623955       0.71965044       4.36329759       16      -0.01323409      -0.01213578       0.02308590
H        1.56195590       2.67141834       6.12088029       17       0.00653452      -0.01672838      -0.02309702
H       -0.46326720       1.89389614       6.16073603       18       0.01919679      -0.01968182       0.01018688
H        0.70065483      -0.86930481       4.32344242       19      -0.02583041      -0.00920590      -0.01018496
H        6.70550785       1.64682867       0.87879113       20       0.01323241       0.01213461      -0.02308475
H       -5.84629404       2.06153966       9.60538592       21      -0.00653609       0.01672618       0.02309462
H        5.84422538      -1.89389611       9.56553025       22      -0.01919029       0.01966890      -0.01017751
H       -5.53330301       3.23578383       0.91864627       23       0.02584163       0.00921510       0.01018911
H        0.25118892       0.51320651       1.94904363       24      -0.01400602      -0.01703871      -0.02868810
H       -0.54820845      -1.79509608       8.53513266       25       0.00518281      -0.02145655       0.02868159
H       -2.80824660       2.46883415       5.11321221       26      -0.03240781      -0.01272131       0.00990933
H       -6.60574339       3.34870703       5.37096440       27       0.02347685      -0.02566465      -0.00992764
H       -5.08383701       1.85327247       3.29304511       28       0.01400346       0.01703889       0.02868859
H       -4.83274950       1.79509621       7.19113351       29      -0.00520917       0.02144528      -0.02866482
H       -0.92778153       4.63060280       0.12887636       30       0.03240924       0.01272244      -0.00991071
H        2.32140525       1.38425108      10.35530181       31      -0.02347622       0.02567175       0.00991819
C       -0.12855714       1.44666453       3.84724416       32      -0.06474383      -0.02297612       0.02711067
C        0.20337421      -1.12376648       6.63693321       33       0.04808373      -0.04911412      -0.02705950
C       -0.77313051       2.84277400       5.69386795       34       0.01803285      -0.04222279       0.05795866
C        1.39625479      -0.15339356       4.79030935       35      -0.03474435      -0.02990988      -0.05791921
C        6.05782528       0.91981441       1.39484463       36       0.06475940       0.02297372      -0.02710363
C       -5.58433221       1.12376665       9.08933301       37      -0.04808984       0.04911412       0.02707729
C       -3.51120742       1.89018398      10.03239814       38      -0.01806873       0.04223119      -0.05796545
C        4.53301350       2.51987249       0.45177955       39       0.03474724       0.02992433       0.05790963
C       -0.32629464       1.35816529       2.34320610       40       0.01374668       0.00373659      -0.01267766
C        0.34204072      -1.29021282       8.14097360       41      -0.01071779       0.00947052       0.01263799
C       -2.26788800       3.05478920       5.86652617       42      -0.01084395       0.00948915      -0.01263985
C        2.83194261      -0.62035931       4.61765398       43       0.01386708       0.00375763       0.01261370
C        6.25556282       1.00831377       2.89888264       44      -0.01376814      -0.00373879       0.01266646
C       -5.72299919       1.29021260       7.58529264       45       0.01074482      -0.00945094      -0.01267886
C       -2.01645024       1.67816877       9.85974051       46       0.01086642      -0.00949092       0.01260924
C        3.09732573       2.98683830       0.62443475       47      -0.01388422      -0.00375921      -0.01259584
O       -0.42617556       2.75832691       4.28195552       48      -0.00161040      -0.01560073      -0.00606903
O        1.04750942      -0.07664205       6.20222130       49      -0.00535065      -0.01474477       0.00606374
O       -1.17299330      -0.80891944       6.27987373       50      -0.00940001      -0.01381643      -0.00193582
O        1.24603231       1.12411994       4.20430308       51       0.00225639      -0.01656982       0.00193519
O       -3.30985252       4.34111019       0.96013317       52       0.00160931       0.01560202       0.00605937
O        4.33344869       0.07664206       9.52404498       53       0.00534945       0.01474200      -0.00606639
O       -4.20796492       0.80891948       9.44639258       54       0.00941717       0.01382551       0.00193546
O        4.68323598       1.24235915       1.03778562       55      -0.00226699       0.01654574      -0.00193160
