32
Lattice="6.17176593 0.0 0.0 0.0 8.01859859 0.0 0.0 0.0 13.03281824" Properties=species:S:1:pos:R:3:spacegroup_kinds:I:1:momenta:R:3:forces:R:3 spacegroup="P 1" unit_cell=conventional occupancy="_JSON {\"0\": {\"Li\": 1}, \"1\": {\"Li\": 1}, \"2\": {\"Li\": 1}, \"3\": {\"Li\": 1}, \"4\": {\"Li\": 1}, \"5\": {\"Li\": 1}, \"6\": {\"Li\": 1}, \"7\": {\"Li\": 1}, \"8\": {\"Li\": 1}, \"9\": {\"Li\": 1}, \"10\": {\"Li\": 1}, \"11\": {\"Li\": 1}, \"12\": {\"P\": 1}, \"13\": {\"P\": 1}, \"14\": {\"P\": 1}, \"15\": {\"P\": 1}, \"16\": {\"S\": 1}, \"17\": {\"S\": 1}, \"18\": {\"S\": 1}, \"19\": {\"S\": 1}, \"20\": {\"S\": 1}, \"21\": {\"S\": 1}, \"22\": {\"S\": 1}, \"23\": {\"S\": 1}, \"24\": {\"S\": 1}, \"25\": {\"S\": 1}, \"26\": {\"S\": 1}, \"27\": {\"S\": 1}, \"28\": {\"S\": 1}, \"29\": {\"S\": 1}, \"30\": {\"S\": 1}, \"31\": {\"S\": 1}}" energy=-140.19549560546875 free_energy=-140.19549560546875 stress="-0.0010600346140563488 0.0013575325720012188 0.0013924639206379652 0.0013575325720012188 -0.0034947532694786787 -0.0010574277257546782 0.0013924639206379652 -0.0010574277257546782 -0.0030081223230808973" pbc="T T T"
Li       2.37571145       0.35761290       4.36720141        0      -0.10172889      -0.03526305      -0.01961153       0.11876119      -0.24028648      -0.12826592
Li       3.74519314       7.66853326       8.73119546        1      -0.19551278      -0.43808345      -0.00876003       0.12364087       0.10961045      -0.07695130
Li       5.47697473       7.71841672       2.25683505        2       0.09967713       0.14281448      -0.02246901       0.05709539       0.01415162      -0.15767249
Li       0.74930840       0.33355206      10.80320388        3       0.43160035      -0.11976782      -0.42133943      -0.10260452      -0.09235842       0.06421240
Li       3.72133689       4.31989760       8.78421685        4       0.16229087       0.07160186      -0.03282850       0.08660432      -0.04579739      -0.28222400
Li       2.33932318       3.71520253       4.32001530        5      -0.12382682       0.11117991       0.12135205       0.13542263       0.07417431       0.01901781
Li       0.64231675       3.76383447      10.88281243        6      -0.13744675       0.08481606       0.11897826       0.03341598      -0.07210544       0.02138825
Li       5.52022778       4.23558530       2.13703659        7      -0.21588538      -0.20544744       0.12656901      -0.09377526       0.07411785       0.07476972
Li       3.08084630      -0.02710299       0.02537166        8       0.06518448      -0.17781395       0.06090085      -0.01425993       0.06078899      -0.02328309
Li       0.09845828       0.02624543       6.44048217        9       0.25366250      -0.12528759      -0.00071977      -0.19195336      -0.17708844       0.04089401
Li       3.06656903       4.09233036      -0.07115638       10      -0.34900117       0.16242934      -0.07335828      -0.16962460      -0.08921241       0.18087243
Li       0.01566788       4.04393204       6.55368822       11       0.10137618      -0.12135296       0.04865030      -0.07324666       0.00196721      -0.06452391
P        0.94214909       2.00108314       1.21917222       12       0.53901679       0.03010253       0.83707386       0.18179262      -0.23243019      -0.40977859
P        5.22477473       6.02827988      11.86059917       13       0.04051410       0.80644258       0.11254934       0.02662698       0.05194582      -0.16226138
P        4.00347062       6.02311938       5.31875405       14       0.46661629      -0.53749829      -0.29773606       0.33804470       0.17574698       0.44578332
P        2.14885876       1.99472326       7.68071169       15       0.15325438       0.06732928      -0.29094590       0.25767520      -0.05650787      -0.34493956
S        5.08391747       1.96313357       1.33387722       16       0.06570972      -0.16037461      -0.06028031       0.02550204       0.14270148       0.06276773
S        1.09131672       6.03736493      11.72890625       17      -0.03216497       0.29827425      -0.18658798      -0.06258305      -0.10025148      -0.11051134
S        1.97200244       5.97935824       5.23422416       18      -0.69207968      -0.28835271       0.32962959       0.01933594       0.16752274      -0.09379905
S        4.19175578       1.98777517       7.78830390       19       0.60024106       0.42114210      -0.37532540      -0.33068731       0.09504006       0.08367647
S        1.70360494       2.00963337      12.28587638       20       0.20003450       0.30772003       0.11579204      -0.06102621       0.05733600       0.09435846
S        4.50820956       6.02168627       0.76855536       21       0.19461871       0.13129149       0.10856929      -0.12042075      -0.10627573       0.21962833
S        4.80616605       6.02402341       7.28273062       22       0.81837230       0.11040483      -0.05982945      -0.16166122       0.02057880      -0.18949352
S        1.35697359       1.98843625       5.69600049       23      -0.59567457      -0.47507401      -0.56222005       0.08658844       0.25242877       0.51986212
S        1.68209104       0.25845740       2.02772371       24      -0.16451634      -0.07440640       0.19936501       0.01198301       0.08598306       0.08401687
S        4.49025471       7.75763971      11.04125018       25       0.01124756       0.03362437       0.52624208       0.04901960       0.01516518      -0.07091003
S        4.75158505       7.76196978       4.48762036       26      -0.52784894       0.27854250      -0.05006060      -0.19931081      -0.09482513       0.19709072
S        1.43052648       0.25283041       8.48333783       27      -0.33156322       0.07891739      -0.32315745      -0.13991393      -0.03580143       0.07410458
S        4.42584236       4.30340127      11.02579744       28      -0.78881082      -0.60175416      -0.29358145       0.32818079       0.14837007       0.07955386
S        1.71983199       3.73502604       1.99560192       29       0.46293141      -0.02302724      -0.43612047      -0.06113239       0.01971686       0.08939308
S        1.39279442       3.69463164       8.54158556       30      -0.53448857      -0.23260967       0.61992569      -0.03408544       0.02637142       0.01451074
S        4.79714917       4.33059544       4.51428749       31       0.12420058       0.47948038       0.18933430      -0.06340429      -0.25077707      -0.25128675
