32
Lattice="6.17176593 0.0 0.0 0.0 8.01859859 0.0 0.0 0.0 13.03281824" Properties=species:S:1:pos:R:3:spacegroup_kinds:I:1:momenta:R:3:forces:R:3 spacegroup="P 1" unit_cell=conventional occupancy="_JSON {\"0\": {\"Li\": 1}, \"1\": {\"Li\": 1}, \"2\": {\"Li\": 1}, \"3\": {\"Li\": 1}, \"4\": {\"Li\": 1}, \"5\": {\"Li\": 1}, \"6\": {\"Li\": 1}, \"7\": {\"Li\": 1}, \"8\": {\"Li\": 1}, \"9\": {\"Li\": 1}, \"10\": {\"Li\": 1}, \"11\": {\"Li\": 1}, \"12\": {\"P\": 1}, \"13\": {\"P\": 1}, \"14\": {\"P\": 1}, \"15\": {\"P\": 1}, \"16\": {\"S\": 1}, \"17\": {\"S\": 1}, \"18\": {\"S\": 1}, \"19\": {\"S\": 1}, \"20\": {\"S\": 1}, \"21\": {\"S\": 1}, \"22\": {\"S\": 1}, \"23\": {\"S\": 1}, \"24\": {\"S\": 1}, \"25\": {\"S\": 1}, \"26\": {\"S\": 1}, \"27\": {\"S\": 1}, \"28\": {\"S\": 1}, \"29\": {\"S\": 1}, \"30\": {\"S\": 1}, \"31\": {\"S\": 1}}" energy=-140.31869506835938 free_energy=-140.31869506835938 stress="-0.007170614320784807 -9.952474400165556e-09 1.592683318563104e-08 -9.952474400165556e-09 -0.008259422145783901 3.1608491379842008e-09 1.592683318563104e-08 3.1608491379842008e-09 -0.0052662985399365425" pbc="T T T"
Li       2.40329652       0.26860172       4.33400832        0       0.00000000       0.00000000       0.00000000      -0.02603561       0.00549133      -0.00432168
Li       3.76846941       7.74999687       8.69880992        1       0.00000000       0.00000000       0.00000000       0.02603660      -0.00549284       0.00432207
Li       5.48917948       7.74999687       2.18240080        2       0.00000000       0.00000000       0.00000000      -0.02603643      -0.00549110       0.00432298
Li       0.68258645       0.26860172      10.85041744        3       0.00000000       0.00000000       0.00000000       0.02603490       0.00549167      -0.00431953
Li       3.76846941       4.27790102       8.69880992        4       0.00000000       0.00000000       0.00000000       0.02603624       0.00549153       0.00432213
Li       2.40329652       3.74069757       4.33400832        5       0.00000000       0.00000000       0.00000000      -0.02603589      -0.00549050      -0.00432151
Li       0.68258645       3.74069757      10.85041744        6       0.00000000       0.00000000       0.00000000       0.02603665      -0.00549166      -0.00432035
Li       5.48917948       4.27790102       2.18240080        7       0.00000000       0.00000000       0.00000000      -0.02603582       0.00549039       0.00432263
Li       3.08588297       0.00000000       0.00000000        8       0.00000000       0.00000000       0.00000000      -0.00000105      -0.00000192      -0.00000044
Li       0.00000000       0.00000000       6.51640912        9       0.00000000       0.00000000       0.00000000       0.00000046      -0.00000133       0.00000040
Li       3.08588297       4.00929929       0.00000000       10       0.00000000       0.00000000       0.00000000      -0.00000004       0.00000050      -0.00000137
Li       0.00000000       4.00929929       6.51640912       11       0.00000000       0.00000000       0.00000000       0.00000050       0.00000168       0.00000035
P        0.94051010       2.00464965       1.16601784       12       0.00000000       0.00000000       0.00000000      -0.02067234       0.00000101       0.02376151
P        5.23125583       6.01394894      11.86680040       13       0.00000000       0.00000000       0.00000000       0.02066627       0.00000008      -0.02375916
P        4.02639307       6.01394894       5.35039128       14       0.00000000       0.00000000       0.00000000      -0.02066791       0.00000104      -0.02375577
P        2.14537286       2.00464965       7.68242696       15       0.00000000       0.00000000       0.00000000       0.02066880      -0.00000123       0.02375776
S        5.08970823       2.00464965       1.30575389       16       0.00000000       0.00000000       0.00000000      -0.25450531       0.00000065       0.01679117
S        1.08205770       6.01394894      11.72706435       17       0.00000000       0.00000000       0.00000000       0.25450769      -0.00000137      -0.01679265
S        2.00382526       6.01394894       5.21065523       18       0.00000000       0.00000000       0.00000000      -0.25450599       0.00000054      -0.01679242
S        4.16794067       2.00464965       7.82216301       19       0.00000000       0.00000000       0.00000000       0.25450042       0.00000080       0.01679001
S        1.68132889       2.00464965      12.25955363       20       0.00000000       0.00000000       0.00000000       0.10912223       0.00000007      -0.16719556
S        4.49043704       6.01394894       0.77326461       21       0.00000000       0.00000000       0.00000000      -0.10912062      -0.00000001       0.16718104
S        4.76721186       6.01394894       7.28967373       22       0.00000000       0.00000000       0.00000000       0.10912108       0.00000007       0.16717981
S        1.40455407       2.00464965       5.74314451       23       0.00000000       0.00000000       0.00000000      -0.10911959       0.00000033      -0.16718107
S        1.67233151       0.29287049       2.00524453       24       0.00000000       0.00000000       0.00000000       0.13957825      -0.21272573       0.08709926
S        4.49943442       7.72572810      11.02757371       25       0.00000000       0.00000000       0.00000000      -0.13957556       0.21272445      -0.08709198
S        4.75821447       7.72572810       4.51116459       26       0.00000000       0.00000000       0.00000000       0.13957503       0.21272376      -0.08709174
S        1.41355146       0.29287049       8.52165365       27       0.00000000       0.00000000       0.00000000      -0.13957599      -0.21272144       0.08709095
S        4.49943442       4.30216979      11.02757371       28       0.00000000       0.00000000       0.00000000      -0.13957699      -0.21272409      -0.08709413
S        1.67233151       3.71642880       2.00524453       29       0.00000000       0.00000000       0.00000000       0.13957869       0.21272664       0.08709939
S        1.41355146       3.71642880       8.52165365       30       0.00000000       0.00000000       0.00000000      -0.13957591       0.21272174       0.08709103
S        4.75821447       4.30216979       4.51116459       31       0.00000000       0.00000000       0.00000000       0.13957714      -0.21272498      -0.08709320
32
Lattice="6.17176593 0.0 0.0 0.0 8.01859859 0.0 0.0 0.0 13.03281824" Properties=species:S:1:pos:R:3:spacegroup_kinds:I:1:momenta:R:3:forces:R:3 spacegroup="P 1" unit_cell=conventional occupancy="_JSON {\"0\": {\"Li\": 1}, \"1\": {\"Li\": 1}, \"2\": {\"Li\": 1}, \"3\": {\"Li\": 1}, \"4\": {\"Li\": 1}, \"5\": {\"Li\": 1}, \"6\": {\"Li\": 1}, \"7\": {\"Li\": 1}, \"8\": {\"Li\": 1}, \"9\": {\"Li\": 1}, \"10\": {\"Li\": 1}, \"11\": {\"Li\": 1}, \"12\": {\"P\": 1}, \"13\": {\"P\": 1}, \"14\": {\"P\": 1}, \"15\": {\"P\": 1}, \"16\": {\"S\": 1}, \"17\": {\"S\": 1}, \"18\": {\"S\": 1}, \"19\": {\"S\": 1}, \"20\": {\"S\": 1}, \"21\": {\"S\": 1}, \"22\": {\"S\": 1}, \"23\": {\"S\": 1}, \"24\": {\"S\": 1}, \"25\": {\"S\": 1}, \"26\": {\"S\": 1}, \"27\": {\"S\": 1}, \"28\": {\"S\": 1}, \"29\": {\"S\": 1}, \"30\": {\"S\": 1}, \"31\": {\"S\": 1}}" energy=-140.31869506835938 free_energy=-140.31869506835938 stress="-0.007149125915020704 -4.003005233244039e-05 -9.791261845748522e-07 -4.003005233244039e-05 -0.008215696550905704 1.657704524404835e-05 -9.791261845748522e-07 1.657704524404835e-05 -0.005245694424957037" pbc="T T T"
Li       2.40445250       0.26840277       4.33433807        0       0.06362410       0.02691862      -0.01205541      -0.02813256       0.00527822      -0.00402635
Li       3.76790966       7.74962483       8.69757576        1      -0.02107429       0.03501760      -0.01392399       0.02834511      -0.00548884       0.00702688
Li       5.48925979       7.75123877       2.18314643        2      -0.01484664       0.07502758       0.06670247      -0.02696846      -0.00944493       0.00163184
Li       0.67946999       0.26893317      10.84903496        3      -0.13594134      -0.02748544      -0.07509549       0.03366839       0.00641902      -0.00260395
Li       3.76762124       4.27749679       8.70037614        4      -0.03992954       0.03404154       0.05820649       0.02742686       0.00646199      -0.00038147
Li       2.40276602       3.73812013       4.33623331        5      -0.01456785      -0.08591545       0.03414991      -0.02439704       0.00119996      -0.00885828
Li       0.67907373       3.73984655      10.85042427        6      -0.15144279      -0.02734895       0.03588292       0.03296503      -0.00556233      -0.00459955
Li       5.48957980       4.27637870       2.18073629        7       0.00197327      -0.03839277      -0.05071027      -0.02848082       0.00811692       0.00808399
Li       3.08418838      -0.00157231       0.00196234        8      -0.08473755      -0.01436055       0.05074699       0.00125247      -0.00053699      -0.00408634
Li       0.00077800       0.00138870       6.51410592        9       0.06624305       0.07077805      -0.12396092       0.00140589      -0.00186235       0.00448685
Li       3.08550529       4.01054250       0.00019240       10       0.05299022       0.11247999       0.05030778       0.00006166      -0.00005347      -0.00160557
Li      -0.00174469       4.01144468       6.51839795       11      -0.02629409       0.09867907       0.03837895       0.00221304      -0.00336533      -0.00276848
P        0.94074660       2.00531589       1.16621903       12      -0.01235771       0.04774885       0.02541257      -0.02551679      -0.01561224       0.02937495
P        5.23146014       6.01399833      11.86624738       13       0.04719973      -0.17115509      -0.13543610       0.02536880       0.00531988      -0.01032980
P        4.02682659       6.01476366       5.35027962       14       0.19326703       0.26580662      -0.00333079      -0.03727482      -0.02096342      -0.02718233
P        2.14550115       2.00454386       7.68232841       15       0.11016092      -0.21242048      -0.11853824       0.01804966       0.00998792       0.02733686
S        5.08919228       2.00360121       1.30620363       16      -0.09918561      -0.20326012       0.13350819      -0.24261571       0.00463864       0.01497455
S        1.08257883       6.01325904      11.72705871       17       0.05960006      -0.16456270      -0.02300018       0.24764220       0.00369649      -0.01897583
S        2.00319849       6.01335849       5.21069578       18      -0.12592012      -0.03630475      -0.10002692      -0.23703037       0.00471325      -0.01681919
S        4.16753872       2.00370044       7.82161937       19      -0.10611412      -0.13212491      -0.11509067       0.26560783       0.00642289       0.01803111
S        1.68145578       2.00583855      12.25995051       20      -0.02830088       0.25604415       0.19528137       0.10706702      -0.00714303      -0.16899115
S        4.49066378       6.01378426       0.77349062       21       0.08897489      -0.11119815       0.17029131      -0.10565661      -0.00057120       0.15889134
S        4.76740895       6.01461628       7.28952584       22       0.05822438       0.24110033      -0.03281789       0.10851823      -0.00068563       0.16911787
S        1.40485174       2.00469601       5.74372164       23      -0.04460124      -0.03083549       0.13059000      -0.11472441      -0.00044576      -0.17562348
S        1.67183054       0.29197832       2.00640028       24      -0.03923094      -0.29867974       0.25617346       0.13554220      -0.19353127       0.07876039
S        4.49921393       7.72578343      11.02776363       25      -0.06789999       0.08526775      -0.09154153      -0.14363445       0.21271491      -0.08803558
S        4.75907018       7.72572854       4.51098283       26       0.04162078      -0.00799967       0.05707150       0.13811633       0.21728116      -0.08893208
S        1.41484356       0.29285315       8.52058893       27       0.22555838      -0.04640842      -0.13670307      -0.15096702      -0.22269961       0.09489296
S        4.49958718       4.30283128      11.02682566       28       0.21883696       0.21800472      -0.17387336      -0.14663173      -0.21810156      -0.08553603
S        1.67256118       3.71732994       2.00459217       29       0.02466539       0.10012481      -0.07996757       0.13870481       0.20850053       0.09387500
S        1.41363784       3.71656753       8.52201619       30      -0.03751049       0.08562097       0.05928145      -0.13884449       0.20832746       0.08660381
S        4.75767425       4.30177743       4.51104384       31      -0.20298397      -0.14420796      -0.07591296       0.13891970      -0.20301117      -0.08373284
32
Lattice="6.17176593 0.0 0.0 0.0 8.01859859 0.0 0.0 0.0 13.03281824" Properties=species:S:1:pos:R:3:spacegroup_kinds:I:1:momenta:R:3:forces:R:3 spacegroup="P 1" unit_cell=conventional occupancy="_JSON {\"0\": {\"Li\": 1}, \"1\": {\"Li\": 1}, \"2\": {\"Li\": 1}, \"3\": {\"Li\": 1}, \"4\": {\"Li\": 1}, \"5\": {\"Li\": 1}, \"6\": {\"Li\": 1}, \"7\": {\"Li\": 1}, \"8\": {\"Li\": 1}, \"9\": {\"Li\": 1}, \"10\": {\"Li\": 1}, \"11\": {\"Li\": 1}, \"12\": {\"P\": 1}, \"13\": {\"P\": 1}, \"14\": {\"P\": 1}, \"15\": {\"P\": 1}, \"16\": {\"S\": 1}, \"17\": {\"S\": 1}, \"18\": {\"S\": 1}, \"19\": {\"S\": 1}, \"20\": {\"S\": 1}, \"21\": {\"S\": 1}, \"22\": {\"S\": 1}, \"23\": {\"S\": 1}, \"24\": {\"S\": 1}, \"25\": {\"S\": 1}, \"26\": {\"S\": 1}, \"27\": {\"S\": 1}, \"28\": {\"S\": 1}, \"29\": {\"S\": 1}, \"30\": {\"S\": 1}, \"31\": {\"S\": 1}}" energy=-140.31817626953125 free_energy=-140.31817626953125 stress="-0.007236633449792862 -0.00017316621961072087 -1.4319234651338775e-05 -0.00017316621961072087 -0.00796304177492857 3.323653800180182e-05 -1.4319234651338775e-05 3.323653800180182e-05 -0.005221484694629908" pbc="T T T"
Li       2.40672272       0.27329188       4.33595407        0       0.03900699       0.22842899       0.11723648      -0.03246830      -0.00314034      -0.00813626
Li       3.76658514       7.75236575       8.69874728        1      -0.06590583       0.11178479       0.05171667       0.03491388      -0.01442535       0.00319722
Li       5.48601382       7.75171830       2.18556721        2      -0.14650153      -0.05052168       0.04530430      -0.01924859      -0.01102212      -0.00463169
Li       0.67440631       0.26933040      10.84664828        3      -0.12248958       0.02453798      -0.01311490       0.04332428       0.00855330       0.00057470
Li       3.76493087       4.27806580       8.70297056        4      -0.06675063      -0.03446150       0.08148818       0.03042069       0.00779285      -0.01055399
Li       2.40101359       3.73454272       4.33795914        5      -0.10184996      -0.15162626       0.04319121      -0.02010258       0.01310731      -0.01495817
Li       0.67253263       3.73908264      10.85129554        6      -0.24265157       0.00623359       0.05114892       0.05049579      -0.00961217      -0.00974721
Li       5.48798018       4.27671676       2.17739751        7       0.00962510       0.06102308      -0.14727658      -0.02422156       0.00397523       0.01638915
Li       3.08194404      -0.00308996       0.00086180        8      -0.06052252      -0.08052865      -0.03958768       0.00134495      -0.00308845       0.00050859
Li       0.00416933       0.00628938       6.50898037        9       0.07441882       0.16478598      -0.14885101      -0.00202016      -0.01205240       0.01366825
Li       3.08681619       4.01375154       0.00039751       10       0.12086473       0.11001814      -0.02341443      -0.00600879      -0.00206694       0.00334648
Li      -0.00296300       4.01665333       6.51850177       11      -0.03593532       0.15447126       0.00300599       0.00764565      -0.00589077      -0.00009969
P        0.94106657       2.00470001       1.16567427       12       0.20072868      -0.11881430      -0.11954860      -0.00654352      -0.02356079       0.08268063
P        5.23300660       6.01252015      11.86421757       13       0.32872035      -0.22167593      -0.29804449       0.01124136       0.06359217       0.04189286
P        4.02689627       6.01731442       5.34959132       14      -0.21062402       0.42620109      -0.12798860      -0.05663216      -0.08546556      -0.01757875
P        2.14674613       2.00287213       7.68132053       15       0.23648264      -0.19249541      -0.05270411      -0.01682711       0.04995137       0.06996270
S        5.09003982       2.00110764       1.30731766       16       0.17198961      -0.49641076       0.19442261      -0.24951650       0.01303967       0.01188518
S        1.08384486       6.01219090      11.72719284       17       0.10234796      -0.24988136       0.08689983       0.24216332       0.00986600      -0.02686884
S        2.00226471       6.01333552       5.21013166       18      -0.21518870      -0.02790716       0.07593613      -0.21821709       0.01547937      -0.01903712
S        4.16649900       2.00264363       7.82048729       19      -0.09187829      -0.10791671      -0.28904634       0.29894379       0.01265565       0.01913324
S        1.68060883       2.00730123      12.26139715       20      -0.18303950       0.16694140       0.21188413       0.11366747      -0.01576549      -0.19658725
S        4.49136355       6.01354869       0.77472315       21      -0.08247368       0.05682172       0.17436245      -0.09634542       0.00002108       0.11461622
S        4.76798583       6.01527936       7.28880774       22       0.11954326      -0.04012659      -0.20220095       0.10388292       0.00705397       0.17062144
S        1.40460955       2.00545505       5.74573401       23      -0.02173867       0.23916058       0.20237749      -0.12522753      -0.00258753      -0.20623246
S        1.67191563       0.28884658       2.00845633       24       0.12082725      -0.50698898       0.32421141       0.12199444      -0.15281540       0.05806363
S        4.49770760       7.72671455      11.02768861       25      -0.19440744       0.14162002       0.04061042      -0.13116044       0.18396983      -0.07737604
S        4.75933771       7.72601845       4.51132180       26       0.05112509       0.14049673       0.07186426       0.14569882       0.24239522      -0.10047533
S        1.41568963       0.29193674       8.51960227       27       0.12071764      -0.24459257      -0.09061850      -0.15896381      -0.22696923       0.09714753
S        4.50072248       4.30389699      11.02644191       28       0.03510116       0.22719416      -0.09595935      -0.16775997      -0.24550837      -0.09725354
S        1.67300961       3.71902499       2.00416849       29       0.05951355       0.39990458      -0.23730201       0.12667122       0.17832445       0.08673602
S        1.41429938       3.71718514       8.52258556       30       0.18230197       0.04139890       0.17808162      -0.13330546       0.17897063       0.07697710
S        4.75651089       4.30080871       4.51084069       31      -0.13135758      -0.17707512      -0.06808452       0.13216043      -0.17477711      -0.07786468
32
Lattice="6.17176593 0.0 0.0 0.0 8.01859859 0.0 0.0 0.0 13.03281824" Properties=species:S:1:pos:R:3:spacegroup_kinds:I:1:momenta:R:3:forces:R:3 spacegroup="P 1" unit_cell=conventional occupancy="_JSON {\"0\": {\"Li\": 1}, \"1\": {\"Li\": 1}, \"2\": {\"Li\": 1}, \"3\": {\"Li\": 1}, \"4\": {\"Li\": 1}, \"5\": {\"Li\": 1}, \"6\": {\"Li\": 1}, \"7\": {\"Li\": 1}, \"8\": {\"Li\": 1}, \"9\": {\"Li\": 1}, \"10\": {\"Li\": 1}, \"11\": {\"Li\": 1}, \"12\": {\"P\": 1}, \"13\": {\"P\": 1}, \"14\": {\"P\": 1}, \"15\": {\"P\": 1}, \"16\": {\"S\": 1}, \"17\": {\"S\": 1}, \"18\": {\"S\": 1}, \"19\": {\"S\": 1}, \"20\": {\"S\": 1}, \"21\": {\"S\": 1}, \"22\": {\"S\": 1}, \"23\": {\"S\": 1}, \"24\": {\"S\": 1}, \"25\": {\"S\": 1}, \"26\": {\"S\": 1}, \"27\": {\"S\": 1}, \"28\": {\"S\": 1}, \"29\": {\"S\": 1}, \"30\": {\"S\": 1}, \"31\": {\"S\": 1}}" energy=-140.31686401367188 free_energy=-140.31686401367188 stress="-0.0072141182608902454 -0.0002997613628394902 -5.043971395934932e-05 -0.0002997613628394902 -0.007524056825786829 -1.915547727548983e-05 -5.043971395934932e-05 -1.915547727548983e-05 -0.005133104044944048" pbc="T T T"
Li       2.40807982       0.28074064       4.34207055        0       0.05521198       0.22205252       0.22543236      -0.03526045      -0.01569570      -0.02118843
Li       3.76518488       7.75424485       8.70159516        1      -0.02603493       0.04588802       0.12173426       0.04336330      -0.02420506      -0.00209994
Li       5.48096601       7.74921216       2.18971258        2      -0.18159621      -0.12576417       0.17696780      -0.00370242      -0.00586757      -0.01383654
Li       0.67231445       0.27137868      10.84752832        3      -0.07119308       0.05598988       0.08389167       0.04625079       0.00503120      -0.00353723
Li       3.76089239       4.27855436       8.70879103        4      -0.19522914       0.00693613       0.21119399       0.03756185       0.00974124      -0.03183392
Li       2.39518158       3.73100085       4.33897853        5      -0.14456399      -0.12647857       0.02609327      -0.00489784       0.02838213      -0.02171932
Li       0.66557252       3.74260997      10.85356244        6      -0.17901429       0.15806943       0.07784986       0.07327531      -0.02596618      -0.01604125
Li       5.48827895       4.27799569       2.17089319        7       0.03237789       0.00373733      -0.12218167      -0.02536242      -0.00232022       0.03072879
Li       3.08053747      -0.00489783      -0.00092676        8       0.01874921      -0.00593162      -0.01011239      -0.00018754      -0.00362834       0.01023474
Li       0.00505623       0.01368631       6.50369306        9      -0.01589323       0.24382510      -0.12225906      -0.00494913      -0.02126566       0.02529220
Li       3.09069027       4.01862277      -0.00150520       10       0.05989415       0.16774616      -0.06092960      -0.01889624      -0.00912032       0.01562472
Li      -0.00507316       4.02422361       6.51920973       11      -0.03993398       0.26167891       0.02252231       0.01404065      -0.01183652       0.00024414
P        0.94181882       2.00401201       1.16563680       12       0.13529191      -0.02237978       0.03025489       0.00468768      -0.04160691       0.15024883
P        5.23489192       6.01107928      11.86129297       13       0.06042131      -0.09585618      -0.39651819      -0.00066123       0.14260899       0.11440136
P        4.02520710       6.02075146       5.34926861       14      -0.30024634       0.52848815       0.05545002      -0.04032198      -0.17126775      -0.03711231
P        2.14820646       2.00140331       7.68033539       15       0.02581347       0.02014004      -0.17563912      -0.06256797       0.05707226       0.10344552
S        5.09048776       1.99672749       1.30920008       16      -0.05147817      -0.60277605       0.29419148      -0.23998201       0.02875261       0.00870455
S        1.08592560       6.00972358      11.72778954       17       0.27315529      -0.27011558       0.14293519       0.22847947       0.02305355      -0.03449626
S        2.00071355       6.01306953       5.21033543       18      -0.02573733       0.00690055       0.08787243      -0.20912756       0.03102646      -0.02154877
S        4.16555284       2.00008619       7.81925875       19      -0.07929319      -0.51703697      -0.11863706       0.33139312       0.02463426       0.02029686
S        1.67930023       2.00755245      12.26359141       20      -0.13979649      -0.05171034       0.21431317       0.12460960      -0.01129868      -0.23330739
S        4.49069454       6.01429470       0.77555694       21      -0.15915384       0.18944311       0.00025838      -0.07955743      -0.00920246       0.05766575
S        4.76932593       6.01523887       7.28676786       22       0.09367889      -0.02792270      -0.38134997       0.09455158       0.01932103       0.18706724
S        1.40281039       2.00734170       5.74658306       23      -0.21272452       0.16361649      -0.02299103      -0.13110924      -0.00506260      -0.20909701
S        1.67338864       0.28495310       2.01071436       24       0.31102104      -0.48818768       0.36440345       0.10052899      -0.09945085       0.03952844
S        4.49624803       7.72847971      11.02896366       25      -0.07346368       0.23092010       0.05613952      -0.10862408       0.15494113      -0.07380092
S        4.75933177       7.72765322       4.51097675       26      -0.04991217       0.16912328      -0.07989937       0.14030017       0.25235808      -0.09956490
S        1.41728144       0.28851173       8.51848403       27       0.32002994      -0.57769385      -0.16846350      -0.16342381      -0.20244305       0.08845299
S        4.50183535       4.30663082      11.02430129       28       0.05005393       0.29306489      -0.28331523      -0.19217265      -0.28675303      -0.10912209
S        1.67406505       3.72202264       2.00310431       29       0.19041228       0.28609555      -0.10080453       0.11121244       0.13617808       0.07095364
S        1.41615489       3.71746915       8.52359151       30       0.18929812       0.03009399       0.11090104      -0.13529404       0.15356655       0.07031269
S        4.75599356       4.29942093       4.51006799       31       0.12985517      -0.17195616      -0.25930440       0.10584304      -0.11967678      -0.06489626
32
Lattice="6.17176593 0.0 0.0 0.0 8.01859859 0.0 0.0 0.0 13.03281824" Properties=species:S:1:pos:R:3:spacegroup_kinds:I:1:momenta:R:3:forces:R:3 spacegroup="P 1" unit_cell=conventional occupancy="_JSON {\"0\": {\"Li\": 1}, \"1\": {\"Li\": 1}, \"2\": {\"Li\": 1}, \"3\": {\"Li\": 1}, \"4\": {\"Li\": 1}, \"5\": {\"Li\": 1}, \"6\": {\"Li\": 1}, \"7\": {\"Li\": 1}, \"8\": {\"Li\": 1}, \"9\": {\"Li\": 1}, \"10\": {\"Li\": 1}, \"11\": {\"Li\": 1}, \"12\": {\"P\": 1}, \"13\": {\"P\": 1}, \"14\": {\"P\": 1}, \"15\": {\"P\": 1}, \"16\": {\"S\": 1}, \"17\": {\"S\": 1}, \"18\": {\"S\": 1}, \"19\": {\"S\": 1}, \"20\": {\"S\": 1}, \"21\": {\"S\": 1}, \"22\": {\"S\": 1}, \"23\": {\"S\": 1}, \"24\": {\"S\": 1}, \"25\": {\"S\": 1}, \"26\": {\"S\": 1}, \"27\": {\"S\": 1}, \"28\": {\"S\": 1}, \"29\": {\"S\": 1}, \"30\": {\"S\": 1}, \"31\": {\"S\": 1}}" energy=-140.31253051757812 free_energy=-140.31253051757812 stress="-0.006910677533596754 -0.0004553606850095093 -0.00010227606981061399 -0.0004553606850095093 -0.007006685249507427 -0.00012258460628800094 -0.00010227606981061399 -0.00012258460628800094 -0.0050350152887403965" pbc="T T T"
Li       2.40896233       0.29066906       4.34867121        0       0.03902683       0.26104131       0.08557216      -0.03444486      -0.03545511      -0.03641495
Li       3.76425670       7.75559767       8.70531561        1      -0.02475931       0.03693038       0.18029003       0.05042027      -0.03119443      -0.01020647
Li       5.47397079       7.74299987       2.19396867        2      -0.19480902      -0.16076213       0.09613608       0.01979683       0.00663818      -0.02314362
Li       0.66928416       0.27364720      10.85106644        3      -0.11398829       0.11840193       0.11722030       0.05323716      -0.00059618      -0.01360262
Li       3.75205576       4.28060435       8.71720185        4      -0.26771117       0.12427291       0.28509621       0.05575953       0.01025087      -0.06025704
Li       2.38894354       3.72369294       4.33903477        5      -0.15858583      -0.25386228       0.01670774       0.01918588       0.05328711      -0.02575216
Li       0.65937068       3.74640852      10.85522973        6      -0.14974140       0.01485628       0.04661057       0.09280706      -0.03922513      -0.01675847
Li       5.49132818       4.27791119       2.16526740        7       0.10629054       0.01730914      -0.22655319      -0.03439312      -0.00309463       0.04326077
Li       3.08101851      -0.00360559      -0.00135855        8      -0.01080707       0.02819491       0.01318762      -0.00052500      -0.00657647       0.01982953
Li       0.00694194       0.02126894       6.49840355        9       0.14396192       0.21590389      -0.22898553      -0.00789642      -0.03077997       0.03737758
Li       3.09318909       4.02339167      -0.00516079       10       0.11644996       0.09387155      -0.18704516      -0.03422237      -0.01341884       0.03467058
Li      -0.00390140       4.03342360       6.51949620       11       0.05753462       0.28018503       0.02038232       0.01232507      -0.01783325      -0.00837274
P        0.94192623       2.00442116       1.16540137       12      -0.14754801       0.04308138      -0.01514367       0.02783065      -0.09338784       0.23501769
P        5.23469267       6.00897748      11.85768811       13       0.04643260      -0.24355135      -0.45632397       0.03866731       0.24168141       0.20664772
P        4.02303012       6.02594147       5.34986331       14      -0.24912013       0.73448231       0.00977644      -0.01138470      -0.30494571      -0.09267996
P        2.14905350       2.00230846       7.67945844       15       0.12352993       0.13874242      -0.13106041      -0.07188042      -0.00784826       0.11481459
S        5.09002808       1.99166664       1.31111588       16      -0.10359716      -0.69062044       0.22372207      -0.21907745       0.04665617       0.00413939
S        1.08863983       6.00836238      11.72930003       17       0.36967142      -0.09516796       0.17670709       0.17737688       0.02415544      -0.04391500
S        1.99937287       6.01256524       5.21127436       18      -0.14284117      -0.02973891       0.22750112      -0.20767941       0.04501268      -0.02525153