32
Lattice="6.17176593 0.0 0.0 0.0 8.01859859 0.0 0.0 0.0 13.03281824" Properties=species:S:1:pos:R:3:spacegroup_kinds:I:1:forces:R:3 spacegroup="P 1" unit_cell=conventional occupancy="_JSON {\"0\": {\"Li\": 1}, \"1\": {\"Li\": 1}, \"2\": {\"Li\": 1}, \"3\": {\"Li\": 1}, \"4\": {\"Li\": 1}, \"5\": {\"Li\": 1}, \"6\": {\"Li\": 1}, \"7\": {\"Li\": 1}, \"8\": {\"Li\": 1}, \"9\": {\"Li\": 1}, \"10\": {\"Li\": 1}, \"11\": {\"Li\": 1}, \"12\": {\"P\": 1}, \"13\": {\"P\": 1}, \"14\": {\"P\": 1}, \"15\": {\"P\": 1}, \"16\": {\"S\": 1}, \"17\": {\"S\": 1}, \"18\": {\"S\": 1}, \"19\": {\"S\": 1}, \"20\": {\"S\": 1}, \"21\": {\"S\": 1}, \"22\": {\"S\": 1}, \"23\": {\"S\": 1}, \"24\": {\"S\": 1}, \"25\": {\"S\": 1}, \"26\": {\"S\": 1}, \"27\": {\"S\": 1}, \"28\": {\"S\": 1}, \"29\": {\"S\": 1}, \"30\": {\"S\": 1}, \"31\": {\"S\": 1}}" energy=-140.31869506835938 free_energy=-140.31869506835938 stress="-0.007170614320784807 -9.952474400165556e-09 1.592683318563104e-08 -9.952474400165556e-09 -0.008259422145783901 3.1608491379842008e-09 1.592683318563104e-08 3.1608491379842008e-09 -0.0052662985399365425" pbc="T T T"
Li       2.40329652       0.26860172       4.33400832        0      -0.02603561       0.00549133      -0.00432168
Li       3.76846941       7.74999687       8.69880992        1       0.02603660      -0.00549284       0.00432207
Li       5.48917948       7.74999687       2.18240080        2      -0.02603643      -0.00549110       0.00432298
Li       0.68258645       0.26860172      10.85041744        3       0.02603490       0.00549167      -0.00431953
Li       3.76846941       4.27790102       8.69880992        4       0.02603624       0.00549153       0.00432213
Li       2.40329652       3.74069757       4.33400832        5      -0.02603589      -0.00549050      -0.00432151
Li       0.68258645       3.74069757      10.85041744        6       0.02603665      -0.00549166      -0.00432035
Li       5.48917948       4.27790102       2.18240080        7      -0.02603582       0.00549039       0.00432263
Li       3.08588297       0.00000000       0.00000000        8      -0.00000105      -0.00000192      -0.00000044
Li       0.00000000       0.00000000       6.51640912        9       0.00000046      -0.00000133       0.00000040
Li       3.08588297       4.00929929       0.00000000       10      -0.00000004       0.00000050      -0.00000137
Li       0.00000000       4.00929929       6.51640912       11       0.00000050       0.00000168       0.00000035
P        0.94051010       2.00464965       1.16601784       12      -0.02067234       0.00000101       0.02376151
P        5.23125583       6.01394894      11.86680040       13       0.02066627       0.00000008      -0.02375916
P        4.02639307       6.01394894       5.35039128       14      -0.02066791       0.00000104      -0.02375577
P        2.14537286       2.00464965       7.68242696       15       0.02066880      -0.00000123       0.02375776
S        5.08970823       2.00464965       1.30575389       16      -0.25450531       0.00000065       0.01679117
S        1.08205770       6.01394894      11.72706435       17       0.25450769      -0.00000137      -0.01679265
S        2.00382526       6.01394894       5.21065523       18      -0.25450599       0.00000054      -0.01679242
S        4.16794067       2.00464965       7.82216301       19       0.25450042       0.00000080       0.01679001
S        1.68132889       2.00464965      12.25955363       20       0.10912223       0.00000007      -0.16719556
S        4.49043704       6.01394894       0.77326461       21      -0.10912062      -0.00000001       0.16718104
S        4.76721186       6.01394894       7.28967373       22       0.10912108       0.00000007       0.16717981
S        1.40455407       2.00464965       5.74314451       23      -0.10911959       0.00000033      -0.16718107
S        1.67233151       0.29287049       2.00524453       24       0.13957825      -0.21272573       0.08709926
S        4.49943442       7.72572810      11.02757371       25      -0.13957556       0.21272445      -0.08709198
S        4.75821447       7.72572810       4.51116459       26       0.13957503       0.21272376      -0.08709174
S        1.41355146       0.29287049       8.52165365       27      -0.13957599      -0.21272144       0.08709095
S        4.49943442       4.30216979      11.02757371       28      -0.13957699      -0.21272409      -0.08709413
S        1.67233151       3.71642880       2.00524453       29       0.13957869       0.21272664       0.08709939
S        1.41355146       3.71642880       8.52165365       30      -0.13957591       0.21272174       0.08709103
S        4.75821447       4.30216979       4.51116459       31       0.13957714      -0.21272498      -0.08709320
