4
Lattice="3.128588 0.0 0.0 -1.5642939988088433 2.709436998432005 0.0 0.0 0.0 5.016955" Properties=species:S:1:pos:R:3:spacegroup_kinds:I:1:forces:R:3 spacegroup="P 1" unit_cell=conventional occupancy="_JSON {\"0\": {\"Al\": 1}, \"1\": {\"Al\": 1}, \"2\": {\"N\": 1}, \"3\": {\"N\": 1}}" energy=-29.673717498779297 free_energy=-29.673717498779297 stress="-0.002225354081019759 -1.4270384554038174e-06 2.061016779464353e-08 -1.4270384554038174e-06 -0.0022274081129580736 -2.2935868759788036e-09 2.061016779464353e-08 -2.2935868759788036e-09 -0.005453682504594326" pbc="T T T"
Al       1.56429556       0.90314476       2.50490041        0      -0.00003493       0.00001843       0.00553253
Al      -0.00000156       1.80629224       5.01337791        1       0.00003395      -0.00001929       0.00552390
N        1.56429556       0.90314476       4.41849749        2      -0.00003615       0.00002011      -0.00553097
N       -0.00000156       1.80629224       1.91001999        3       0.00003711      -0.00001932      -0.00552527
