13
Lattice="7.26870274 0.0 0.0 3.634351370000001 6.294881225397555 0.0 3.634351370000001 2.0982937417991856 5.934870934989993" Properties=species:S:1:pos:R:3:spacegroup_kinds:I:1:forces:R:3 spacegroup="P 1" unit_cell=conventional occupancy="_JSON {\"0\": {\"Li\": 1}, \"1\": {\"Li\": 1}, \"2\": {\"Li\": 1}, \"3\": {\"Li\": 1}, \"4\": {\"Li\": 1}, \"5\": {\"Li\": 1}, \"6\": {\"P\": 1}, \"7\": {\"S\": 1}, \"8\": {\"S\": 1}, \"9\": {\"S\": 1}, \"10\": {\"S\": 1}, \"11\": {\"S\": 1}, \"12\": {\"Cl\": 1}}" energy=-53.3634147644043 free_energy=-53.3634147644043 stress="-0.0007941980147734284 -2.3784285474448552e-07 -1.6412133163612452e-07 -2.3784285474448552e-07 -0.0007939402712509036 -1.1254294918217056e-07 -1.6412133163612452e-07 -1.1254294918217056e-07 -0.0007939106435514987" pbc="T T T"
Li       9.25387995       7.24703237       3.10460814        0       0.00422471      -0.00243388       0.00344723
Li      12.55222827       5.34273008       5.79769826        1      -0.00421076       0.00243257      -0.00344109
Li       9.25387995       5.34273008       5.79769826        2       0.00422437       0.00243908      -0.00344666
Li      12.55222827       7.24703237       3.10460814        3      -0.00421178      -0.00243087       0.00344082
Li      10.90305411       4.39057894       3.10460814        4       0.00000254       0.00487562       0.00344742
Li      10.90305411       8.19918351       5.79769826        5       0.00000221      -0.00486294      -0.00344113
P        7.26870274       4.19658748       2.96743547        6       0.00008563       0.00004604       0.00003641
S        7.26870637       6.13578650       2.28182731        7      -0.00001838      -0.01090990       0.00384752
S        8.94810016       3.22699113       2.28182731        8      -0.00945763       0.00544033       0.00384711
S        5.58931258       3.22699113       2.28182731        9       0.00937789       0.00541306       0.00383005
S        7.26870637       4.19658958       5.02426588       10      -0.00001867      -0.00000961      -0.01156817
S       10.90305411       6.29488123       4.45115320       11      -0.00000166      -0.00000063      -0.00000023
Cl       0.00000000       0.00000000       0.00000000       12       0.00000151       0.00000112       0.00000069
