4
Lattice="3.128588 0.0 0.0 -1.5642939988088433 2.709436998432005 0.0 0.0 0.0 5.016955" Properties=species:S:1:pos:R:3:spacegroup_kinds:I:1:forces:R:3 spacegroup="P 1" unit_cell=conventional occupancy="_JSON {\"0\": {\"Al\": 1}, \"1\": {\"Al\": 1}, \"2\": {\"N\": 1}, \"3\": {\"N\": 1}}" energy=-29.673715591430664 free_energy=-29.673715591430664 stress="-0.002225324744358659 -1.3646466641148436e-06 1.8968005832675772e-08 -1.3646466641148436e-06 -0.002227526856586337 -6.227495674693273e-08 1.8968005832675772e-08 -6.227495674693273e-08 -0.005453679710626602" pbc="T T T"
Al       1.56429556       0.90314476       2.50490041        0      -0.00003552       0.00002097       0.00553194
Al      -0.00000156       1.80629224       5.01337791        1       0.00003473      -0.00001942       0.00552405
N        1.56429556       0.90314476       4.41849749        2      -0.00003653       0.00001997      -0.00553039
N       -0.00000156       1.80629224       1.91001999        3       0.00003715      -0.00002154      -0.00552588
