4
Lattice="3.128588 0.0 0.0 -1.5642939988088433 2.709436998432005 0.0 0.0 0.0 5.016955" Properties=species:S:1:pos:R:3:spacegroup_kinds:I:1:momenta:R:3:forces:R:3 spacegroup="P 1" unit_cell=conventional occupancy="_JSON {\"0\": {\"Al\": 1}, \"1\": {\"Al\": 1}, \"2\": {\"N\": 1}, \"3\": {\"N\": 1}}" energy=-29.62373924255371 free_energy=-29.62373924255371 stress="0.004300330299884081 -0.008672798052430153 0.0028819211293011904 -0.008672798052430153 -0.006943651009351015 -0.004434529691934586 0.0028819211293011904 -0.004434529691934586 -0.014839176088571548" pbc="T T T"
Al       1.54321205       0.89379623       2.53645987        0      -0.00705414      -0.41529123       0.79444832      -0.25250319       0.39303005      -0.87834251
Al       0.03580898       1.79893954       4.98957808        1       0.09337925      -0.29525109      -0.61191819      -0.16600810       0.14057982       0.62745088
N        1.59619760       0.90645092       4.40111844        2      -0.02189828       1.09350635       0.27120888      -0.08900125      -0.09593609       0.34911272
N       -0.05911264       1.83464207       1.91219260        3      -0.06442685      -0.38296405      -0.45373894       0.50751239      -0.43767378      -0.09822108
