4
Lattice="3.128588 0.0 0.0 -1.5642939988088433 2.709436998432005 0.0 0.0 0.0 5.016955" Properties=species:S:1:pos:R:3:spacegroup_kinds:I:1:momenta:R:3:forces:R:3 spacegroup="P 1" unit_cell=conventional occupancy="_JSON {\"0\": {\"Al\": 1}, \"1\": {\"Al\": 1}, \"2\": {\"N\": 1}, \"3\": {\"N\": 1}}" energy=-29.673717498779297 free_energy=-29.673717498779297 stress="-0.00222530635073781 -1.4366745517691015e-06 -3.029853345992706e-08 -1.4366745517691015e-06 -0.0022273610811680555 -8.104824900101448e-08 -3.029853345992706e-08 -8.104824900101448e-08 -0.0054536317475140095" pbc="T T T"
Al       1.56429556       0.90314476       2.50490041        0       0.68448204       0.53670047       0.91071479      -0.00003524       0.00001982       0.00553127
Al      -0.00000156       1.80629224       5.01337791        1       0.31075784       0.39520501      -1.87833745       0.00003477      -0.00001791       0.00552344
N        1.56429556       0.90314476       4.41849749        2      -0.23293981      -0.79739853      -0.40745139      -0.00003667       0.00001861      -0.00552949
N       -0.00000156       1.80629224       1.91001999        3      -0.76230006      -0.13450696       1.37507406       0.00003703      -0.00002021      -0.00552530
4
Lattice="3.128588 0.0 0.0 -1.5642939988088433 2.709436998432005 0.0 0.0 0.0 5.016955" Properties=species:S:1:pos:R:3:spacegroup_kinds:I:1:momenta:R:3:forces:R:3 spacegroup="P 1" unit_cell=conventional occupancy="_JSON {\"0\": {\"Al\": 1}, \"1\": {\"Al\": 1}, \"2\": {\"N\": 1}, \"3\": {\"N\": 1}}" energy=-29.43359375 free_energy=-29.43359375 stress="-0.01377340778708458 -0.016446398571133614 0.012948783114552498 -0.016446398571133614 -0.02396867796778679 0.009969708509743214 0.012948783114552498 0.009969708509743214 -0.012059392407536507" pbc="T T T"
Al       1.60246140       0.92231284       2.54150849        0       0.57498205      -0.13491967       1.02882493      -1.31301200      -0.49033332      -0.87831324
Al       0.00328788       1.81111140       4.94718774        1      -0.44725827       0.00118052      -1.07867336      -0.30154133      -0.59423220       1.18011832
N        1.53678588       0.85870779       4.38099595        2       0.14052050      -0.46066727       0.20203865       0.28490728       0.67984450       1.25553632
N       -0.05228244       1.80432670       2.00436660        3      -0.26824429       0.59440644      -0.15219017       1.32964611       0.40472090      -1.55734158
4
Lattice="3.128588 0.0 0.0 -1.5642939988088433 2.709436998432005 0.0 0.0 0.0 5.016955" Properties=species:S:1:pos:R:3:spacegroup_kinds:I:1:momenta:R:3:forces:R:3 spacegroup="P 1" unit_cell=conventional occupancy="_JSON {\"0\": {\"Al\": 1}, \"1\": {\"Al\": 1}, \"2\": {\"N\": 1}, \"3\": {\"N\": 1}}" energy=-29.567256927490234 free_energy=-29.567256927490234 stress="0.01291581429541111 0.0017024718690663576 0.003579398849979043 0.0017024718690663576 -0.025856897234916687 -0.005369116552174091 0.003579398849979043 -0.005369116552174091 -0.011435085907578468" pbc="T T T"
Al       1.59598186       0.90138487       2.55101265        0      -0.85003956      -0.64755170      -0.41676303      -0.33522767       0.74370384      -1.26921093
Al      -0.01311801       1.79082858       4.96769656        1      -0.24557030      -0.74327784       1.65595771      -0.18280306      -0.17026950       1.21499515
N        1.52960410       0.86779351       4.41996341        2       0.16413060       0.60763581       0.63654571       0.31887674       0.39321589      -0.09056857
N       -0.00060094       1.87475187       1.90756522        3       0.93147926       0.78319379      -1.87574036       0.19915411      -0.96665072       0.14478423
4
Lattice="3.128588 0.0 0.0 -1.5642939988088433 2.709436998432005 0.0 0.0 0.0 5.016955" Properties=species:S:1:pos:R:3:spacegroup_kinds:I:1:momenta:R:3:forces:R:3 spacegroup="P 1" unit_cell=conventional occupancy="_JSON {\"0\": {\"Al\": 1}, \"1\": {\"Al\": 1}, \"2\": {\"N\": 1}, \"3\": {\"N\": 1}}" energy=-29.40627098083496 free_energy=-29.40627098083496 stress="0.010688728652894497 0.016498208045959473 -0.008163987658917904 0.016498208045959473 -0.009423105977475643 -0.015553957782685757 -0.008163987658917904 -0.015553957782685757 -0.061254117637872696" pbc="T T T"
Al       1.53423929       0.87298461       2.51007452        0      -1.60925372       0.09619178      -1.03262353       0.74608910       1.00298476       0.03482509
Al      -0.01349004       1.78470223       5.05709164        1       0.21561279      -0.04339773       1.72443402       0.02271215       0.40732855      -1.66436851
N        1.55208973       0.92225131       4.42203510        2       0.38659351       0.63935800      -0.93002903       0.04495834      -0.39009625      -0.56986278
N        0.09667396       1.88681816       1.81230438        3       1.00704742      -0.69215202       0.23821858      -0.81375939      -1.02021718       2.19940615
4
Lattice="3.128588 0.0 0.0 -1.5642939988088433 2.709436998432005 0.0 0.0 0.0 5.016955" Properties=species:S:1:pos:R:3:spacegroup_kinds:I:1:momenta:R:3:forces:R:3 spacegroup="P 1" unit_cell=conventional occupancy="_JSON {\"0\": {\"Al\": 1}, \"1\": {\"Al\": 1}, \"2\": {\"N\": 1}, \"3\": {\"N\": 1}}" energy=-29.201906204223633 free_energy=-29.201906204223633 stress="-0.026440901681780815 0.038155436515808105 -0.03138265386223793 0.038155436515808105 -0.004877307452261448 0.001543798833154142 -0.03138265386223793 0.001543798833154142 -0.05181969329714775" pbc="T T T"
Al       1.49382402       0.87740193       2.48150487        0      -0.08661662      -0.02748823       0.25595543       2.48428249      -0.46186873       1.22611988
Al      -0.02076736       1.79337852       5.08843299        1       0.00716730       0.60209026      -1.27068237       0.64723063       0.57433456      -2.36004186
N        1.60157220       0.96971684       4.33361319        2       0.49437290       0.53651069      -0.17473422      -0.53882337      -0.70145303       1.74608946
N        0.13924907       1.81421453       1.89535164        3      -0.41492359      -1.11111270       1.18946116      -2.59268928       0.58898723      -0.61216748
4
Lattice="3.128588 0.0 0.0 -1.5642939988088433 2.709436998432005 0.0 0.0 0.0 5.016955" Properties=species:S:1:pos:R:3:spacegroup_kinds:I:1:momenta:R:3:forces:R:3 spacegroup="P 1" unit_cell=conventional occupancy="_JSON {\"0\": {\"Al\": 1}, \"1\": {\"Al\": 1}, \"2\": {\"N\": 1}, \"3\": {\"N\": 1}}" energy=-29.574626922607422 free_energy=-29.574626922607422 stress="-0.023618020117282867 -0.014321277849376202 -0.011127956211566925 -0.014321277849376202 0.015030225738883018 -0.0028546256944537163 -0.011127956211566925 -0.0028546256944537163 -0.014440400525927544" pbc="T T T"
Al       1.53421960       0.88369268       2.53780579        0       1.55943986       0.36820853       1.55970970       0.29264146      -0.24000613      -0.91367805
Al      -0.00048007       1.82107763       4.98837347        1       1.01688538       0.86374266      -2.47525476       0.94369578       0.52251679       0.78486544
N        1.63583967       0.96584652       4.40663183        2      -0.31021847      -0.52489261       1.27117474      -1.15103829      -0.78907287       0.05687910
N       -0.01177520       1.75252283       1.90648730        3      -2.26610679      -0.70705857      -0.35562970      -0.08529921       0.50656235       0.07193378
4
Lattice="3.128588 0.0 0.0 -1.5642939988088433 2.709436998432005 0.0 0.0 0.0 5.016955" Properties=species:S:1:pos:R:3:spacegroup_kinds:I:1:momenta:R:3:forces:R:3 spacegroup="P 1" unit_cell=conventional occupancy="_JSON {\"0\": {\"Al\": 1}, \"1\": {\"Al\": 1}, \"2\": {\"N\": 1}, \"3\": {\"N\": 1}}" energy=-29.372068405151367 free_energy=-29.372068405151367 stress="-0.005629550199955702 -0.018719619140028954 0.015849394723773003 -0.018719619140028954 -0.032272521406412125 0.01721223257482052 0.015849394723773003 0.01721223257482052 -0.007298216689378023" pbc="T T T"
Al       1.57072833       0.88046441       2.56331972        0      -0.00039179      -0.37629456      -0.57844016      -1.34386575      -0.44065815      -1.50707674
Al       0.05055070       1.86456079       4.94968572        1       0.52727022       0.77034206       1.04960092      -0.49128780      -1.36434126       1.82584667
N        1.58204804       0.88176663       4.44992395        2      -0.27832239      -1.02263444      -0.55459276       0.15003404       1.16376364      -0.85894835
N       -0.12661085       1.75915458       1.88869865        3      -0.24855602       0.62858696       0.08343199       1.68511939       0.64123547       0.54017830
4
Lattice="3.128588 0.0 0.0 -1.5642939988088433 2.709436998432005 0.0 0.0 0.0 5.016955" Properties=species:S:1:pos:R:3:spacegroup_kinds:I:1:momenta:R:3:forces:R:3 spacegroup="P 1" unit_cell=conventional occupancy="_JSON {\"0\": {\"Al\": 1}, \"1\": {\"Al\": 1}, \"2\": {\"N\": 1}, \"3\": {\"N\": 1}}" energy=-29.596925735473633 free_energy=-29.596925735473633 stress="0.015976527705788612 -0.004506145138293505 0.006018618121743202 -0.004506145138293505 -0.025499377399683 -0.004597087390720844 0.006018618121743202 -0.004597087390720844 -0.010014079511165619" pbc="T T T"
Al       1.53284807       0.86390067       2.51395077        0      -1.59464507      -0.16469622      -1.74991270      -0.27820638       0.89915872      -0.15420683
Al       0.06317842       1.83227867       5.00948377        1       0.38440053      -1.80666575       1.59449869      -0.58708525      -0.41271916       0.16725291
N        1.58572480       0.89623783       4.41422580        2       0.14193127       1.12964910      -0.09119188       0.25704148       0.38076943       0.00228057
N       -0.08152109       1.83862419       1.90381446        3       1.06831325       0.84171292       0.24660578       0.60825032      -0.86720896      -0.01532628
4
Lattice="3.128588 0.0 0.0 -1.5642939988088433 2.709436998432005 0.0 0.0 0.0 5.016955" Properties=species:S:1:pos:R:3:spacegroup_kinds:I:1:momenta:R:3:forces:R:3 spacegroup="P 1" unit_cell=conventional occupancy="_JSON {\"0\": {\"Al\": 1}, \"1\": {\"Al\": 1}, \"2\": {\"N\": 1}, \"3\": {\"N\": 1}}" energy=-29.462554931640625 free_energy=-29.462554931640625 stress="-0.005697255488485098 0.010849604383111 -0.00390661833807826 0.010849604383111 -0.01913403533399105 -0.012703248299658298 -0.00390661833807826 -0.012703248299658298 -0.01187144871801138" pbc="T T T"
Al       1.48347330       0.88264396       2.44527932        0      -0.30454552       1.01149500      -0.60004515       0.88392997       0.95768392       1.70777202
Al       0.06164413       1.77681261       5.07306068        1      -0.86715214      -0.75617457       0.43048956      -0.30080590       0.71655262      -1.72280121
N        1.61717708       0.94947181       4.40498425        2       0.38645812       0.04830143       0.18623251      -0.07234001      -0.67486024       0.48910761
N       -0.01486934       1.85626147       1.92266703        3       0.78523952      -0.30362188      -0.01667699      -0.51078409      -0.99937642      -0.47407812
4
Lattice="3.128588 0.0 0.0 -1.5642939988088433 2.709436998432005 0.0 0.0 0.0 5.016955" Properties=species:S:1:pos:R:3:spacegroup_kinds:I:1:momenta:R:3:forces:R:3 spacegroup="P 1" unit_cell=conventional occupancy="_JSON {\"0\": {\"Al\": 1}, \"1\": {\"Al\": 1}, \"2\": {\"N\": 1}, \"3\": {\"N\": 1}}" energy=-29.518753051757812 free_energy=-29.518753051757812 stress="-0.023370707407593727 0.00654015876352787 -0.01609814167022705 0.00654015876352787 0.006697434466332197 -0.00048244939534924924 -0.01609814167022705 -0.00048244939534924924 -0.022161047905683517" pbc="T T T"
Al       1.50607635       0.94974320       2.46463697        0       1.15921273       0.62635225       1.50689852       1.24247527      -0.60704410       1.15697265
Al       0.01335473       1.75088039       5.06242874        1      -0.91112065       0.14825186      -0.88962543       0.51474285       0.69610190      -1.43088937
N        1.62637955       0.90489621       4.42127855        2      -0.14223482      -0.64065000       0.21498405      -0.71771389      -0.51823825      -0.07984845
N        0.02538013       1.82158365       1.88963025        3      -0.10585727      -0.13395413      -0.83225716      -1.03950429       0.42918035       0.35376543
4
Lattice="3.128588 0.0 0.0 -1.5642939988088433 2.709436998432005 0.0 0.0 0.0 5.016955" Properties=species:S:1:pos:R:3:spacegroup_kinds:I:1:momenta:R:3:forces:R:3 spacegroup="P 1" unit_cell=conventional occupancy="_JSON {\"0\": {\"Al\": 1}, \"1\": {\"Al\": 1}, \"2\": {\"N\": 1}, \"3\": {\"N\": 1}}" energy=-29.605010986328125 free_energy=-29.605010986328125 stress="0.0015961219323799014 -0.006785800214856863 -0.0030953886453062296 -0.006785800214856863 0.0017806842224672437 0.0017244885675609112 -0.0030953886453062296 0.0017244885675609112 -0.023114899173378944" pbc="T T T"
Al       1.56693922       0.93861030       2.54470908        0       1.44875378      -0.98943831       1.48437344      -0.01659425      -0.29131478      -1.20299554
Al      -0.01304569       1.78057344       4.99752454        1       0.01689772       1.11024975      -1.70729962       0.38438672       0.02358275       0.50759453
N        1.58384205       0.87104973       4.42155573        2      -0.67927435      -0.02704969      -0.19037185      -0.39236796       0.15177888      -0.39792567
N        0.00122214       1.81989282       1.85992051        3      -0.78637718      -0.09376178       0.41329804       0.02457546       0.11595306       1.09332705
4
Lattice="3.128588 0.0 0.0 -1.5642939988088433 2.709436998432005 0.0 0.0 0.0 5.016955" Properties=species:S:1:pos:R:3:spacegroup_kinds:I:1:momenta:R:3:forces:R:3 spacegroup="P 1" unit_cell=conventional occupancy="_JSON {\"0\": {\"Al\": 1}, \"1\": {\"Al\": 1}, \"2\": {\"N\": 1}, \"3\": {\"N\": 1}}" energy=-29.470205307006836 free_energy=-29.470205307006836 stress="0.0032029994763433933 -0.01780141144990921 0.01183840911835432 -0.01780141144990921 -0.04134930297732353 0.0073598953895270824 0.01183840911835432 0.0073598953895270824 -0.005160480737686157" pbc="T T T"
Al       1.62755627       0.89950080       2.54516750        0       1.04970800      -0.99981834      -0.80202897      -1.41065276       0.15933146      -0.91778862
Al      -0.00757058       1.81703571       4.95606287        1      -0.03757972       0.11959873      -0.16512805      -0.26242864      -0.84351587       1.41445720
N        1.52756237       0.85151202       4.42065483        2      -0.42752200       0.29023001      -0.07965748       0.31766042       0.98894596      -0.00115414
N       -0.06966669       1.84442115       1.93994535        3      -0.58460629       0.58998956       1.04681452       1.35542107      -0.30476102      -0.49551436
4
Lattice="3.128588 0.0 0.0 -1.5642939988088433 2.709436998432005 0.0 0.0 0.0 5.016955" Properties=species:S:1:pos:R:3:spacegroup_kinds:I:1:momenta:R:3:forces:R:3 spacegroup="P 1" unit_cell=conventional occupancy="_JSON {\"0\": {\"Al\": 1}, \"1\": {\"Al\": 1}, \"2\": {\"N\": 1}, \"3\": {\"N\": 1}}" energy=-29.452987670898438 free_energy=-29.452987670898438 stress="-0.013225091621279716 -0.023750094696879387 0.007911418564617634 -0.023750094696879387 -0.047931697219610214 -0.007333218120038509 0.007911418564617634 -0.007333218120038509 0.02863287553191185" pbc="T T T"
Al       1.63184039       0.85684030       2.46693549        0      -0.97589097      -0.55899576      -1.34838342      -1.39010811       1.11026120       1.17303395
Al      -0.02377743       1.82170281       4.98999600        1      -0.28018790       0.45883545       1.28013494      -0.08532605       0.08283414       0.34697744
N        1.52792698       0.92957744       4.44479003        2       0.11446430       0.97873221       0.08012576       0.22036253      -0.17398737       0.05598973
N       -0.04718873       1.83921504       2.00086011        3       1.14161456      -0.87857192      -0.01187728       1.25507140      -1.01910794      -1.57600069
4
Lattice="3.128588 0.0 0.0 -1.5642939988088433 2.709436998432005 0.0 0.0 0.0 5.016955" Properties=species:S:1:pos:R:3:spacegroup_kinds:I:1:momenta:R:3:forces:R:3 spacegroup="P 1" unit_cell=conventional occupancy="_JSON {\"0\": {\"Al\": 1}, \"1\": {\"Al\": 1}, \"2\": {\"N\": 1}, \"3\": {\"N\": 1}}" energy=-29.53631591796875 free_energy=-29.53631591796875 stress="-0.01985756680369377 0.013828965835273266 -0.005717363674193621 0.013828965835273266 -0.003164224559441209 -0.0016709653427824378 -0.005717363674193621 -0.0016709653427824378 -0.006260600872337818" pbc="T T T"
Al       1.56291505       0.86348348       2.43836898        0      -1.44558879       0.38889091       0.34075012       0.67285788       0.11609308       1.45909619
Al      -0.01834140       1.83613135       5.05736570        1       0.19731485      -0.00921572       1.04742088       0.06595119       0.15003522      -1.19267321
N        1.54726696       0.95741147       4.47045639        2      -0.01023987       0.05685099       0.14844030       0.09761538      -0.44420838      -0.65174747
N        0.05576967       1.77068665       1.90062727        3       1.25851382      -0.43652620      -1.53661122      -0.83642447       0.17808002       0.38532507
4
Lattice="3.128588 0.0 0.0 -1.5642939988088433 2.709436998432005 0.0 0.0 0.0 5.016955" Properties=species:S:1:pos:R:3:spacegroup_kinds:I:1:momenta:R:3:forces:R:3 spacegroup="P 1" unit_cell=conventional occupancy="_JSON {\"0\": {\"Al\": 1}, \"1\": {\"Al\": 1}, \"2\": {\"N\": 1}, \"3\": {\"N\": 1}}" energy=-29.5310001373291 free_energy=-29.5310001373291 stress="-0.01829420030117035 0.015707485377788544 -0.011607810854911804 0.015707485377788544 0.0031479026656597853 0.004605638794600964 -0.011607810854911804 0.004605638794600964 -0.01725860685110092" pbc="T T T"
Al       1.54701072       0.87273544       2.46070919        0       0.71855737      -0.11584374       0.49435412       1.07476842      -0.28505582       1.06925523
Al      -0.01761628       1.84389393       5.05391118        1       0.19346347       0.17720452      -0.69190212       0.23187624      -0.07941456      -1.16825140
N        1.56395354       0.94331125       4.45961396        2       0.32487485      -0.12409433      -0.51346211      -0.11547002      -0.20503822      -0.72920316
N        0.06831354       1.75176766       1.87546336        3      -1.23689572       0.06273353       0.71101023      -1.19117451       0.56950873       0.82819909
4
Lattice="3.128588 0.0 0.0 -1.5642939988088433 2.709436998432005 0.0 0.0 0.0 5.016955" Properties=species:S:1:pos:R:3:spacegroup_kinds:I:1:momenta:R:3:forces:R:3 spacegroup="P 1" unit_cell=conventional occupancy="_JSON {\"0\": {\"Al\": 1}, \"1\": {\"Al\": 1}, \"2\": {\"N\": 1}, \"3\": {\"N\": 1}}" energy=-29.61321449279785 free_energy=-29.61321449279785 stress="-0.008381764404475689 -0.004276680760085583 0.005492827855050564 -0.004276680760085583 -0.013937261886894703 0.0014804867096245289 0.005492827855050564 0.0014804867096245289 0.012475457973778248" pbc="T T T"
Al       1.57767908       0.87033376       2.48321565        0       0.42145966      -0.10086012       0.75449271      -0.50598681       0.14215428       0.64867657
Al       0.00878680       1.84488740       5.00616577        1       0.94842519       0.04829726      -0.67234583      -0.28191003      -0.37569791       0.05942918
N        1.54733740       0.91884312       4.41695258        2      -0.50233598      -0.06173899      -0.86681647       0.26756707       0.16352543       0.34766588
N       -0.02491942       1.77881442       1.96659668        3      -0.86754891       0.11430184       0.78466973       0.52032959       0.07001823      -1.05577135
4
Lattice="3.128588 0.0 0.0 -1.5642939988088433 2.709436998432005 0.0 0.0 0.0 5.016955" Properties=species:S:1:pos:R:3:spacegroup_kinds:I:1:momenta:R:3:forces:R:3 spacegroup="P 1" unit_cell=conventional occupancy="_JSON {\"0\": {\"Al\": 1}, \"1\": {\"Al\": 1}, \"2\": {\"N\": 1}, \"3\": {\"N\": 1}}" energy=-29.557838439941406 free_energy=-29.557838439941406 stress="-0.01636355184018612 -0.002947659231722355 0.01290381420403719 -0.002947659231722355 -0.006207786966115236 0.001537589356303215 0.01290381420403719 0.001537589356303215 -0.002714877249673009" pbc="T T T"
Al       1.59068816       0.88023428       2.52274584        0      -0.41625589       0.17887038       0.33160791      -0.90884471      -0.14031139      -0.36867940
Al       0.01872291       1.83477380       4.97781994        1       0.14974015      -0.20763044      -0.17578520      -0.72829700      -0.10046361       0.72652900
N        1.52039169       0.92489992       4.39464375        2       0.19754319       0.25939883       0.47781843       0.72475910      -0.09604948       0.71574289
N       -0.04216868       1.77342025       1.96745701        3       0.06897251      -0.23063880      -0.63364109       0.91238290       0.33682451      -1.07359266
4
Lattice="3.128588 0.0 0.0 -1.5642939988088433 2.709436998432005 0.0 0.0 0.0 5.016955" Properties=species:S:1:pos:R:3:spacegroup_kinds:I:1:momenta:R:3:forces:R:3 spacegroup="P 1" unit_cell=conventional occupancy="_JSON {\"0\": {\"Al\": 1}, \"1\": {\"Al\": 1}, \"2\": {\"N\": 1}, \"3\": {\"N\": 1}}" energy=-29.621112823486328 free_energy=-29.621112823486328 stress="-0.0215008445084095 0.00527633773162961 -0.0032673836685717106 0.00527633773162961 0.010657521896064281 0.0019249572651460767 -0.0032673836685717106 0.0019249572651460767 -0.0015898485435172915" pbc="T T T"
Al       1.54767650       0.89587760       2.50832858        0      -0.85810066       0.46896492      -1.00002988       0.39160296      -0.39029118      -0.15032795
Al       0.00665803       1.82067517       5.00342497        1      -0.72966949      -0.11082687       1.46536752      -0.00949796       0.22696891       0.34863231
N        1.57185926       0.94293297       4.45440725        2       0.62349867      -0.37686470       0.64593168      -0.01969955      -0.43335193      -0.83890116
N        0.01256032       1.75229422       1.88600533        3       0.96427146       0.01872665      -1.11126922      -0.36240548       0.59667420       0.64059675
4
Lattice="3.128588 0.0 0.0 -1.5642939988088433 2.709436998432005 0.0 0.0 0.0 5.016955" Properties=species:S:1:pos:R:3:spacegroup_kinds:I:1:momenta:R:3:forces:R:3 spacegroup="P 1" unit_cell=conventional occupancy="_JSON {\"0\": {\"Al\": 1}, \"1\": {\"Al\": 1}, \"2\": {\"N\": 1}, \"3\": {\"N\": 1}}" energy=-29.520856857299805 free_energy=-29.520856857299805 stress="-0.014047346077859402 0.011820896528661251 -0.014255593530833721 0.011820896528661251 -0.005614997819066048 0.009361542761325836 -0.014255593530833721 0.009361542761325836 -0.019570903852581978" pbc="T T T"
Al       1.52999426       0.91403914       2.46474574        0       0.09545064      -0.23101238      -1.18071269       1.21875477      -0.63577223       0.99289834
Al      -0.00890654       1.82180732       5.05208966        1       0.31216888      -0.10747513       0.45537641       0.39472616      -0.38378522      -1.12709975
N        1.59437709       0.88605558       4.45928985        2      -0.04798974      -0.53350275      -0.20523350      -0.40810347       0.35579059      -0.79021752
N        0.05384453       1.77207218       1.87145000        3      -0.35962980       0.87199027       0.93056986      -1.20537734       0.66376692       0.92441893
4
Lattice="3.128588 0.0 0.0 -1.5642939988088433 2.709436998432005 0.0 0.0 0.0 5.016955" Properties=species:S:1:pos:R:3:spacegroup_kinds:I:1:momenta:R:3:forces:R:3 spacegroup="P 1" unit_cell=conventional occupancy="_JSON {\"0\": {\"Al\": 1}, \"1\": {\"Al\": 1}, \"2\": {\"N\": 1}, \"3\": {\"N\": 1}}" energy=-29.618785858154297 free_energy=-29.618785858154297 stress="0.010117621161043644 -0.001821943442337215 -0.0018731618765741587 -0.001821943442337215 -0.024783186614513397 0.004591162782162428 -0.0018731618765741587 0.004591162782162428 2.6514760975260288e-05" pbc="T T T"
Al       1.53818031       0.90928016       2.47247638        0       0.23228619      -0.27447257       1.41733348       0.21200988       0.18702321       0.85529840
Al       0.01802690       1.81430744       5.03506514        1       0.60360808      -0.42930218      -1.11140725       0.03760067      -0.69444120      -0.55142498
N        1.59518015       0.85128049       4.42414640        2       0.09084634       0.02420631      -0.77345538      -0.19470003       0.84070575       0.01228927
N       -0.01452982       1.83034435       1.92467359        3      -0.92674066       0.67956843       0.46752926      -0.05491044      -0.33328778      -0.31616274
4
Lattice="3.128588 0.0 0.0 -1.5642939988088433 2.709436998432005 0.0 0.0 0.0 5.016955" Properties=species:S:1:pos:R:3:spacegroup_kinds:I:1:momenta:R:3:forces:R:3 spacegroup="P 1" unit_cell=conventional occupancy="_JSON {\"0\": {\"Al\": 1}, \"1\": {\"Al\": 1}, \"2\": {\"N\": 1}, \"3\": {\"N\": 1}}" energy=-29.62373924255371 free_energy=-29.62373924255371 stress="0.004300330299884081 -0.008672798052430153 0.0028819211293011904 -0.008672798052430153 -0.006943651009351015 -0.004434529691934586 0.0028819211293011904 -0.004434529691934586 -0.014839176088571548" pbc="T T T"
Al       1.54321205       0.89379623       2.53645987        0      -0.00705414      -0.41529123       0.79444832      -0.25250319       0.39303005      -0.87834251
Al       0.03580898       1.79893954       4.98957808        1       0.09337925      -0.29525109      -0.61191819      -0.16600810       0.14057982       0.62745088
N        1.59619760       0.90645092       4.40111844        2      -0.02189828       1.09350635       0.27120888      -0.08900125      -0.09593609       0.34911272
N       -0.05911264       1.83464207       1.91219260        3      -0.06442685      -0.38296405      -0.45373894       0.50751239      -0.43767378      -0.09822108
