4
Lattice="3.128588 0.0 0.0 -1.5642939988088433 2.709436998432005 0.0 0.0 0.0 5.016955" Properties=species:S:1:pos:R:3:spacegroup_kinds:I:1:forces:R:3 spacegroup="P 1" unit_cell=conventional occupancy="_JSON {\"0\": {\"Al\": 1}, \"1\": {\"Al\": 1}, \"2\": {\"N\": 1}, \"3\": {\"N\": 1}}" energy=-29.673717498779297 free_energy=-29.673717498779297 stress="-0.00222530635073781 -1.4366745517691015e-06 -3.029853345992706e-08 -1.4366745517691015e-06 -0.0022273610811680555 -8.104824900101448e-08 -3.029853345992706e-08 -8.104824900101448e-08 -0.0054536317475140095" pbc="T T T"
Al       1.56429556       0.90314476       2.50490041        0      -0.00003524       0.00001982       0.00553127
Al      -0.00000156       1.80629224       5.01337791        1       0.00003477      -0.00001791       0.00552344
N        1.56429556       0.90314476       4.41849749        2      -0.00003667       0.00001861      -0.00552949
N       -0.00000156       1.80629224       1.91001999        3       0.00003703      -0.00002021      -0.00552530
