4
Lattice="3.128588 0.0 0.0 -1.5642939988088433 2.709436998432005 0.0 0.0 0.0 5.016955" Properties=species:S:1:pos:R:3:spacegroup_kinds:I:1:momenta:R:3:forces:R:3 spacegroup="P 1" unit_cell=conventional occupancy="_JSON {\"0\": {\"Al\": 1}, \"1\": {\"Al\": 1}, \"2\": {\"N\": 1}, \"3\": {\"N\": 1}}" energy=-29.623741149902344 free_energy=-29.623741149902344 stress="0.004300403408706188 -0.008672559633851051 0.002881772583350539 -0.008672559633851051 -0.006943666376173496 -0.004434502683579922 0.002881772583350539 -0.004434502683579922 -0.014839015901088715" pbc="T T T"
Al       1.54321201       0.89379624       2.53645988        0      -0.00705406      -0.41529131       0.79444759      -0.25250223       0.39302740      -0.87834299
Al       0.03580899       1.79893955       4.98957809        1       0.09337952      -0.29525099      -0.61191795      -0.16600728       0.14057975       0.62744755
N        1.59619764       0.90645091       4.40111844        2      -0.02189836       1.09350598       0.27120847      -0.08899979      -0.09593697       0.34911305
N       -0.05911259       1.83464210       1.91219260        3      -0.06442709      -0.38296371      -0.45373811       0.50750929      -0.43767017      -0.09821740
