4
Lattice="3.128588 0.0 0.0 -1.5642939988088433 2.709436998432005 0.0 0.0 0.0 5.016955" Properties=species:S:1:pos:R:3:spacegroup_kinds:I:1:momenta:R:3:forces:R:3 spacegroup="P 1" unit_cell=conventional occupancy="_JSON {\"0\": {\"Al\": 1}, \"1\": {\"Al\": 1}, \"2\": {\"N\": 1}, \"3\": {\"N\": 1}}" energy=-29.673717498779297 free_energy=-29.673717498779297 stress="-0.0022253158967942 -1.3594744814326987e-06 -2.647174746073233e-08 -1.3594744814326987e-06 -0.002227485878393054 -4.579535328730344e-08 -2.647174746073233e-08 -4.579535328730344e-08 -0.0054537151008844376" pbc="T T T"
Al       1.56429556       0.90314476       2.50490041        0       0.68448204       0.53670047       0.91071479      -0.00003431       0.00002052       0.00553164
Al      -0.00000156       1.80629224       5.01337791        1       0.31075784       0.39520501      -1.87833745       0.00003474      -0.00001903       0.00552449
N        1.56429556       0.90314476       4.41849749        2      -0.23293981      -0.79739853      -0.40745139      -0.00003627       0.00001962      -0.00553075
N       -0.00000156       1.80629224       1.91001999        3      -0.76230006      -0.13450696       1.37507406       0.00003580      -0.00002120      -0.00552507
4
Lattice="3.128588 0.0 0.0 -1.5642939988088433 2.709436998432005 0.0 0.0 0.0 5.016955" Properties=species:S:1:pos:R:3:spacegroup_kinds:I:1:momenta:R:3:forces:R:3 spacegroup="P 1" unit_cell=conventional occupancy="_JSON {\"0\": {\"Al\": 1}, \"1\": {\"Al\": 1}, \"2\": {\"N\": 1}, \"3\": {\"N\": 1}}" energy=-29.43359375 free_energy=-29.43359375 stress="-0.013773489743471146 -0.01644640788435936 0.012948810122907162 -0.01644640788435936 -0.02396881766617298 0.009969719685614109 0.012948810122907162 0.009969719685614109 -0.012059347704052925" pbc="T T T"
Al       1.60246141       0.92231283       2.54150849        0       0.57498216      -0.13491996       1.02882495      -1.31301355      -0.49033397      -0.87831366
Al       0.00328788       1.81111139       4.94718774        1      -0.44725803       0.00118042      -1.07867307      -0.30154181      -0.59423268       1.18011916
N        1.53678588       0.85870780       4.38099594        2       0.14052036      -0.46066715       0.20203859       0.28490788       0.67984504       1.25553620
N       -0.05228246       1.80432671       2.00436659        3      -0.26824447       0.59440671      -0.15219050       1.32964742       0.40472141      -1.55734193
4
Lattice="3.128588 0.0 0.0 -1.5642939988088433 2.709436998432005 0.0 0.0 0.0 5.016955" Properties=species:S:1:pos:R:3:spacegroup_kinds:I:1:momenta:R:3:forces:R:3 spacegroup="P 1" unit_cell=conventional occupancy="_JSON {\"0\": {\"Al\": 1}, \"1\": {\"Al\": 1}, \"2\": {\"N\": 1}, \"3\": {\"N\": 1}}" energy=-29.5672550201416 free_energy=-29.5672550201416 stress="0.012915649451315403 0.0017024182016029954 0.0035794179420918226 0.0017024182016029954 -0.025857098400592804 -0.005369159393012524 0.0035794179420918226 -0.005369159393012524 -0.011435226537287235" pbc="T T T"
Al       1.59598186       0.90138486       2.55101265        0      -0.85003995      -0.64755162      -0.41676338      -0.33522779       0.74370456      -1.26921034
Al      -0.01311800       1.79082858       4.96769659        1      -0.24557012      -0.74327787       1.65595812      -0.18280268      -0.17026791       1.21499503
N        1.52960409       0.86779351       4.41996341        2       0.16413064       0.60763573       0.63654569       0.31887662       0.39321449      -0.09056899
N       -0.00060096       1.87475189       1.90756518        3       0.93147943       0.78319373      -1.87574040       0.19915381      -0.96665120       0.14478457
4
Lattice="3.128588 0.0 0.0 -1.5642939988088433 2.709436998432005 0.0 0.0 0.0 5.016955" Properties=species:S:1:pos:R:3:spacegroup_kinds:I:1:momenta:R:3:forces:R:3 spacegroup="P 1" unit_cell=conventional occupancy="_JSON {\"0\": {\"Al\": 1}, \"1\": {\"Al\": 1}, \"2\": {\"N\": 1}, \"3\": {\"N\": 1}}" energy=-29.406274795532227 free_energy=-29.406274795532227 stress="0.010688886046409607 0.016498198732733727 -0.008163990452885628 0.016498198732733727 -0.009423218667507172 -0.015553991310298443 -0.008163990452885628 -0.015553991310298443 -0.06125400587916374" pbc="T T T"
Al       1.53423928       0.87298461       2.51007451        0      -1.60925402       0.09619205      -1.03262321       0.74608743       1.00298619       0.03482338
Al      -0.01349003       1.78470221       5.05709167        1       0.21561237      -0.04339785       1.72443295       0.02271160       0.40732908      -1.66436899
N        1.55208974       0.92225132       4.42203507        2       0.38659394       0.63935798      -0.93002948       0.04495849      -0.39009666      -0.56986159
N        0.09667396       1.88681817       1.81230439        3       1.00704770      -0.69215216       0.23821982      -0.81375766      -1.02021837       2.19940734
4
Lattice="3.128588 0.0 0.0 -1.5642939988088433 2.709436998432005 0.0 0.0 0.0 5.016955" Properties=species:S:1:pos:R:3:spacegroup_kinds:I:1:momenta:R:3:forces:R:3 spacegroup="P 1" unit_cell=conventional occupancy="_JSON {\"0\": {\"Al\": 1}, \"1\": {\"Al\": 1}, \"2\": {\"N\": 1}, \"3\": {\"N\": 1}}" energy=-29.201902389526367 free_energy=-29.201902389526367 stress="-0.026440760120749474 0.038155294954776764 -0.03138265013694763 0.038155294954776764 -0.004877188242971897 0.0015437798574566841 -0.03138265013694763 0.0015437798574566841 -0.05181977152824402" pbc="T T T"
Al       1.49382402       0.87740193       2.48150488        0      -0.08661621      -0.02748804       0.25595612       2.48428106      -0.46186721       1.22611916
Al      -0.02076736       1.79337851       5.08843299        1       0.00716727       0.60209048      -1.27068292       0.64723128       0.57433432      -2.36004281
N        1.60157221       0.96971684       4.33361319        2       0.49437284       0.53651047      -0.17473369      -0.53882384      -0.70145315       1.74609065
N        0.13924905       1.81421453       1.89535164        3      -0.41492394      -1.11111286       1.18946059      -2.59268832       0.58898592      -0.61216748
4
Lattice="3.128588 0.0 0.0 -1.5642939988088433 2.709436998432005 0.0 0.0 0.0 5.016955" Properties=species:S:1:pos:R:3:spacegroup_kinds:I:1:momenta:R:3:forces:R:3 spacegroup="P 1" unit_cell=conventional occupancy="_JSON {\"0\": {\"Al\": 1}, \"1\": {\"Al\": 1}, \"2\": {\"N\": 1}, \"3\": {\"N\": 1}}" energy=-29.574626922607422 free_energy=-29.574626922607422 stress="-0.02361801266670227 -0.014321220107376575 -0.011127926409244537 -0.014321220107376575 0.015030046924948692 -0.002854611026123166 -0.011127926409244537 -0.002854611026123166 -0.014440481550991535" pbc="T T T"
Al       1.53421962       0.88369271       2.53780582        0       1.55944042       0.36820905       1.55971049       0.29264399      -0.24000369      -0.91367567
Al      -0.00048006       1.82107763       4.98837344        1       1.01688559       0.86374295      -2.47525536       0.94369578       0.52251440       0.78486240
N        1.63583966       0.96584650       4.40663185        2      -0.31021901      -0.52489295       1.27117422      -1.15103769      -0.78907084       0.05687717
N       -0.01177524       1.75252281       1.90648727        3      -2.26610703      -0.70705904      -0.35562930      -0.08530224       0.50656039       0.07193612
4
Lattice="3.128588 0.0 0.0 -1.5642939988088433 2.709436998432005 0.0 0.0 0.0 5.016955" Properties=species:S:1:pos:R:3:spacegroup_kinds:I:1:momenta:R:3:forces:R:3 spacegroup="P 1" unit_cell=conventional occupancy="_JSON {\"0\": {\"Al\": 1}, \"1\": {\"Al\": 1}, \"2\": {\"N\": 1}, \"3\": {\"N\": 1}}" energy=-29.3720703125 free_energy=-29.3720703125 stress="-0.005629662424325943 -0.018719486892223358 0.015849478542804718 -0.018719486892223358 -0.03227302432060242 0.017212240025401115 0.015849478542804718 0.017212240025401115 -0.007298188749700785" pbc="T T T"
Al       1.57072834       0.88046444       2.56331976        0      -0.00039286      -0.37629485      -0.57844082      -1.34386492      -0.44065848      -1.50707722
Al       0.05055072       1.86456079       4.94968569        1       0.52727024       0.77034136       1.04960184      -0.49129033      -1.36433673       1.82584763
N        1.58204798       0.88176662       4.44992393        2      -0.27832264      -1.02263363      -0.55459309       0.15003751       1.16376090      -0.85894871
N       -0.12661085       1.75915454       1.88869867        3      -0.24855478       0.62858720       0.08343208       1.68511760       0.64123440       0.54017788
4
Lattice="3.128588 0.0 0.0 -1.5642939988088433 2.709436998432005 0.0 0.0 0.0 5.016955" Properties=species:S:1:pos:R:3:spacegroup_kinds:I:1:momenta:R:3:forces:R:3 spacegroup="P 1" unit_cell=conventional occupancy="_JSON {\"0\": {\"Al\": 1}, \"1\": {\"Al\": 1}, \"2\": {\"N\": 1}, \"3\": {\"N\": 1}}" energy=-29.596923828125 free_energy=-29.596923828125 stress="0.01597650721669197 -0.0045060161501169205 0.006018749438226223 -0.0045060161501169205 -0.025499338284134865 -0.0045971134677529335 0.006018749438226223 -0.0045971134677529335 -0.010013677179813385" pbc="T T T"
Al       1.53284804       0.86390068       2.51395077        0      -1.59464541      -0.16469710      -1.74991339      -0.27820304       0.89915907      -0.15420416
Al       0.06317842       1.83227864       5.00948379        1       0.38439986      -1.80666590       1.59449933      -0.58708560      -0.41271612       0.16725001
N        1.58572476       0.89623788       4.41422577        2       0.14193196       1.12964926      -0.09119165       0.25704131       0.38076574       0.00228114
N       -0.08152101       1.83862418       1.90381448        3       1.06831353       0.84171381       0.24660567       0.60824728      -0.86720884      -0.01532664
4
Lattice="3.128588 0.0 0.0 -1.5642939988088433 2.709436998432005 0.0 0.0 0.0 5.016955" Properties=species:S:1:pos:R:3:spacegroup_kinds:I:1:momenta:R:3:forces:R:3 spacegroup="P 1" unit_cell=conventional occupancy="_JSON {\"0\": {\"Al\": 1}, \"1\": {\"Al\": 1}, \"2\": {\"N\": 1}, \"3\": {\"N\": 1}}" energy=-29.462553024291992 free_energy=-29.462553024291992 stress="-0.0056973169557750225 0.010849480517208576 -0.003906689118593931 0.010849480517208576 -0.019133929163217545 -0.012703152373433113 -0.003906689118593931 -0.012703152373433113 -0.011871341615915298" pbc="T T T"
Al       1.48347328       0.88264395       2.44527930        0      -0.30454474       1.01149488      -0.60004489       0.88393223       0.95768332       1.70777035
Al       0.06164409       1.77681259       5.07306070        1      -0.86715273      -0.75617382       0.43048923      -0.30080470       0.71655309      -1.72279787
N        1.61717711       0.94947184       4.40498427        2       0.38645890       0.04830089       0.18623284      -0.07234116      -0.67486012       0.48910597
N       -0.01486931       1.85626150       1.92266703        3       0.78523850      -0.30362187      -0.01667716      -0.51078653      -0.99937636      -0.47407797
4
Lattice="3.128588 0.0 0.0 -1.5642939988088433 2.709436998432005 0.0 0.0 0.0 5.016955" Properties=species:S:1:pos:R:3:spacegroup_kinds:I:1:momenta:R:3:forces:R:3 spacegroup="P 1" unit_cell=conventional occupancy="_JSON {\"0\": {\"Al\": 1}, \"1\": {\"Al\": 1}, \"2\": {\"N\": 1}, \"3\": {\"N\": 1}}" energy=-29.518749237060547 free_energy=-29.518749237060547 stress="-0.023370638489723206 0.006540027447044849 -0.016098281368613243 0.006540027447044849 0.006697316654026508 -0.00048241086187772453 -0.016098281368613243 -0.00048241086187772453 -0.022161273285746574" pbc="T T T"
Al       1.50607638       0.94974319       2.46463698        0       1.15921308       0.62635221       1.50689916       1.24247491      -0.60704565       1.15697420
Al       0.01335470       1.75088041       5.06242874        1      -0.91112020       0.14825284      -0.88962571       0.51474714       0.69610381      -1.43089008
N        1.62637959       0.90489619       4.42127856        2      -0.14223525      -0.64065053       0.21498368      -0.71771890      -0.51823968      -0.07984753
N        0.02538008       1.82158367       1.88963025        3      -0.10585767      -0.13395445      -0.83225702      -1.03950334       0.42918158       0.35376334
4
Lattice="3.128588 0.0 0.0 -1.5642939988088433 2.709436998432005 0.0 0.0 0.0 5.016955" Properties=species:S:1:pos:R:3:spacegroup_kinds:I:1:momenta:R:3:forces:R:3 spacegroup="P 1" unit_cell=conventional occupancy="_JSON {\"0\": {\"Al\": 1}, \"1\": {\"Al\": 1}, \"2\": {\"N\": 1}, \"3\": {\"N\": 1}}" energy=-29.605009078979492 free_energy=-29.605009078979492 stress="0.0015956229763105512 -0.006785879377275705 -0.0030955325346440077 -0.006785879377275705 0.001780533930286765 0.0017242965986952186 -0.0030955325346440077 0.0017242965986952186 -0.023113688454031944" pbc="T T T"
Al       1.56693922       0.93861032       2.54470910        0       1.44875305      -0.98943793       1.48437360      -0.01659276      -0.29131740      -1.20300651
Al      -0.01304570       1.78057347       4.99752454        1       0.01689816       1.11024936      -1.70729976       0.38438815       0.02358351       0.50760317
N        1.58384204       0.87104971       4.42155572        2      -0.67927486      -0.02704912      -0.19037155      -0.39237010       0.15177786      -0.39792424
N        0.00122213       1.81989278       1.85992053        3      -0.78637635      -0.09376225       0.41329783       0.02457468       0.11595601       1.09332728
4
Lattice="3.128588 0.0 0.0 -1.5642939988088433 2.709436998432005 0.0 0.0 0.0 5.016955" Properties=species:S:1:pos:R:3:spacegroup_kinds:I:1:momenta:R:3:forces:R:3 spacegroup="P 1" unit_cell=conventional occupancy="_JSON {\"0\": {\"Al\": 1}, \"1\": {\"Al\": 1}, \"2\": {\"N\": 1}, \"3\": {\"N\": 1}}" energy=-29.470203399658203 free_energy=-29.470203399658203 stress="0.0032033021561801434 -0.01780153624713421 0.011838298290967941 -0.01780153624713421 -0.041348930448293686 0.007359943352639675 0.011838298290967941 0.007359943352639675 -0.005160127300769091" pbc="T T T"
Al       1.62755625       0.89950081       2.54516752        0       1.04970740      -0.99981873      -0.80202888      -1.41064692       0.15933293      -0.91778874
Al      -0.00757057       1.81703572       4.95606286        1      -0.03757973       0.11959879      -0.16512837      -0.26242477      -0.84351361       1.41445422
N        1.52756232       0.85151205       4.42065485        2      -0.42752201       0.29023025      -0.07965721       0.31765583       0.98894358      -0.00115355
N       -0.06966663       1.84442110       1.93994536        3      -0.58460564       0.58998972       1.04681457       1.35541594      -0.30476323      -0.49551231
4
Lattice="3.128588 0.0 0.0 -1.5642939988088433 2.709436998432005 0.0 0.0 0.0 5.016955" Properties=species:S:1:pos:R:3:spacegroup_kinds:I:1:momenta:R:3:forces:R:3 spacegroup="P 1" unit_cell=conventional occupancy="_JSON {\"0\": {\"Al\": 1}, \"1\": {\"Al\": 1}, \"2\": {\"N\": 1}, \"3\": {\"N\": 1}}" energy=-29.452987670898438 free_energy=-29.452987670898438 stress="-0.013224875554442406 -0.023750215768814087 0.007911440916359425 -0.023750215768814087 -0.0479317307472229 -0.007333292625844479 0.007911440916359425 -0.007333292625844479 0.028632858768105507" pbc="T T T"
Al       1.63184036       0.85684029       2.46693551        0      -0.97589021      -0.55899617      -1.34838319      -1.39010179       1.11026037       1.17304122
Al      -0.02377744       1.82170283       4.98999598        1      -0.28018831       0.45883550       1.28013490      -0.08532473       0.08283427       0.34697452
N        1.52792697       0.92957747       4.44479007        2       0.11446470       0.97873208       0.08012581       0.22036044      -0.17398636       0.05598892
N       -0.04718866       1.83921502       2.00086012        3       1.14161386      -0.87857138      -0.01187744       1.25506592      -1.01910853      -1.57600462
4
Lattice="3.128588 0.0 0.0 -1.5642939988088433 2.709436998432005 0.0 0.0 0.0 5.016955" Properties=species:S:1:pos:R:3:spacegroup_kinds:I:1:momenta:R:3:forces:R:3 spacegroup="P 1" unit_cell=conventional occupancy="_JSON {\"0\": {\"Al\": 1}, \"1\": {\"Al\": 1}, \"2\": {\"N\": 1}, \"3\": {\"N\": 1}}" energy=-29.53631591796875 free_energy=-29.53631591796875 stress="-0.01985781267285347 0.013828951865434647 -0.005717395339161158 0.013828951865434647 -0.0031642878893762827 -0.0016709857154637575 -0.005717395339161158 -0.0016709857154637575 -0.006260510999709368" pbc="T T T"
Al       1.56291507       0.86348346       2.43836900        0      -1.44558769       0.38889083       0.34074951       0.67285883       0.11609422       1.45909691
Al      -0.01834142       1.83613138       5.05736567        1       0.19731474      -0.00921572       1.04742129       0.06595308       0.15003555      -1.19267392
N        1.54726696       0.95741146       4.47045643        2      -0.01023965       0.05685085       0.14844009       0.09761329      -0.44420904      -0.65174818
N        0.05576966       1.77068667       1.90062730        3       1.25851263      -0.43652592      -1.53661083      -0.83642507       0.17807898       0.38532513
4
Lattice="3.128588 0.0 0.0 -1.5642939988088433 2.709436998432005 0.0 0.0 0.0 5.016955" Properties=species:S:1:pos:R:3:spacegroup_kinds:I:1:momenta:R:3:forces:R:3 spacegroup="P 1" unit_cell=conventional occupancy="_JSON {\"0\": {\"Al\": 1}, \"1\": {\"Al\": 1}, \"2\": {\"N\": 1}, \"3\": {\"N\": 1}}" energy=-29.5310001373291 free_energy=-29.5310001373291 stress="-0.01829393394291401 0.0157075934112072 -0.011607724241912365 0.0157075934112072 0.003148080548271537 0.004605667665600777 -0.011607724241912365 0.004605667665600777 -0.017258908599615097" pbc="T T T"
Al       1.54701076       0.87273544       2.46070918        0       0.71855738      -0.11584306       0.49435317       1.07476747      -0.28505743       1.06925356
Al      -0.01761628       1.84389395       5.05391119        1       0.19346385       0.17720416      -0.69190070       0.23187743      -0.07941950      -1.16824996
N        1.56395353       0.94331126       4.45961399        2       0.32487458      -0.12409393      -0.51346207      -0.11547111      -0.20503263      -0.72920233
N        0.06831347       1.75176766       1.87546339        3      -1.23689576       0.06273287       0.71100964      -1.19117355       0.56950963       0.82819879
4
Lattice="3.128588 0.0 0.0 -1.5642939988088433 2.709436998432005 0.0 0.0 0.0 5.016955" Properties=species:S:1:pos:R:3:spacegroup_kinds:I:1:momenta:R:3:forces:R:3 spacegroup="P 1" unit_cell=conventional occupancy="_JSON {\"0\": {\"Al\": 1}, \"1\": {\"Al\": 1}, \"2\": {\"N\": 1}, \"3\": {\"N\": 1}}" energy=-29.61321258544922 free_energy=-29.61321258544922 stress="-0.008381704799830914 -0.004276602063328028 0.005492780823260546 -0.004276602063328028 -0.013937088660895824 0.001480434206314385 0.005492780823260546 0.001480434206314385 0.012475477531552315" pbc="T T T"
Al       1.57767909       0.87033379       2.48321563        0       0.42145850      -0.10086019       0.75449332      -0.50598645       0.14215341       0.64867574
Al       0.00878680       1.84488742       5.00616582        1       0.94842529       0.04829726      -0.67234639      -0.28191018      -0.37569624       0.05942895
N        1.54733738       0.91884315       4.41695260        2      -0.50233597      -0.06173885      -0.86681616       0.26756766       0.16352414       0.34766623
N       -0.02491944       1.77881437       1.96659667        3      -0.86754776       0.11430182       0.78466930       0.52032906       0.07001890      -1.05577064
4
Lattice="3.128588 0.0 0.0 -1.5642939988088433 2.709436998432005 0.0 0.0 0.0 5.016955" Properties=species:S:1:pos:R:3:spacegroup_kinds:I:1:momenta:R:3:forces:R:3 spacegroup="P 1" unit_cell=conventional occupancy="_JSON {\"0\": {\"Al\": 1}, \"1\": {\"Al\": 1}, \"2\": {\"N\": 1}, \"3\": {\"N\": 1}}" energy=-29.55784034729004 free_energy=-29.55784034729004 stress="-0.016363851726055145 -0.002947435714304447 0.012903652153909206 -0.002947435714304447 -0.0062074922025203705 0.0015375177608802915 0.012903652153909206 0.0015375177608802915 -0.0027145801577717066" pbc="T T T"
Al       1.59068813       0.88023428       2.52274585        0      -0.41625604       0.17886987       0.33160807      -0.90884280      -0.14030622      -0.36867979
Al       0.01872291       1.83477381       4.97781996        1       0.14974013      -0.20763012      -0.17578532      -0.72829753      -0.10046331       0.72652757
N        1.52039169       0.92489995       4.39464378        2       0.19754345       0.25939851       0.47781789       0.72476029      -0.09605025       0.71574116
N       -0.04216862       1.77342026       1.96745699        3       0.06897255      -0.23063823      -0.63364063       0.91237998       0.33681974      -1.07358837
4
Lattice="3.128588 0.0 0.0 -1.5642939988088433 2.709436998432005 0.0 0.0 0.0 5.016955" Properties=species:S:1:pos:R:3:spacegroup_kinds:I:1:momenta:R:3:forces:R:3 spacegroup="P 1" unit_cell=conventional occupancy="_JSON {\"0\": {\"Al\": 1}, \"1\": {\"Al\": 1}, \"2\": {\"N\": 1}, \"3\": {\"N\": 1}}" energy=-29.621110916137695 free_energy=-29.621110916137695 stress="-0.021500900387763977 0.005276514682918787 -0.003267450723797083 0.005276514682918787 0.010657894425094128 0.0019248899770900607 -0.003267450723797083 0.0019248899770900607 -0.0015898961573839188" pbc="T T T"
Al       1.54767650       0.89587759       2.50832859        0      -0.85809969       0.46896503      -1.00002990       0.39160699      -0.39029339      -0.15032580
Al       0.00665803       1.82067519       5.00342497        1      -0.72966936      -0.11082689       1.46536716      -0.00949936       0.22697176       0.34863093
N        1.57185927       0.94293298       4.45440724        2       0.62349866      -0.37686481       0.64593154      -0.01969772      -0.43335456      -0.83890092
N        0.01256033       1.75229424       1.88600535        3       0.96427046       0.01872669      -1.11126879      -0.36240995       0.59667623       0.64059585
4
Lattice="3.128588 0.0 0.0 -1.5642939988088433 2.709436998432005 0.0 0.0 0.0 5.016955" Properties=species:S:1:pos:R:3:spacegroup_kinds:I:1:momenta:R:3:forces:R:3 spacegroup="P 1" unit_cell=conventional occupancy="_JSON {\"0\": {\"Al\": 1}, \"1\": {\"Al\": 1}, \"2\": {\"N\": 1}, \"3\": {\"N\": 1}}" energy=-29.520856857299805 free_energy=-29.520856857299805 stress="-0.01404713373631239 0.011820843443274498 -0.014255558140575886 0.011820843443274498 -0.005614766385406256 0.00936158373951912 -0.014255558140575886 0.00936158373951912 -0.01957095041871071" pbc="T T T"
Al       1.52999428       0.91403915       2.46474576        0       0.09545057      -0.23101173      -1.18071274       1.21875548      -0.63577253       0.99290198
Al      -0.00890652       1.82180734       5.05208965        1       0.31216902      -0.10747530       0.45537678       0.39472342      -0.38378569      -1.12710500
N        1.59437709       0.88605560       4.45928986        2      -0.04798965      -0.53350267      -0.20523326      -0.40810144       0.35579103      -0.79021460
N        0.05384448       1.77207218       1.87145002        3      -0.35962990       0.87198972       0.93056926      -1.20537758       0.66376704       0.92441761
4
Lattice="3.128588 0.0 0.0 -1.5642939988088433 2.709436998432005 0.0 0.0 0.0 5.016955" Properties=species:S:1:pos:R:3:spacegroup_kinds:I:1:momenta:R:3:forces:R:3 spacegroup="P 1" unit_cell=conventional occupancy="_JSON {\"0\": {\"Al\": 1}, \"1\": {\"Al\": 1}, \"2\": {\"N\": 1}, \"3\": {\"N\": 1}}" energy=-29.61878776550293 free_energy=-29.61878776550293 stress="0.010117563419044018 -0.0018219525227323174 -0.0018731183372437954 -0.0018219525227323174 -0.024783119559288025 0.004591167904436588 -0.0018731183372437954 0.004591167904436588 2.6315739887650125e-05" pbc="T T T"
Al       1.53818030       0.90928019       2.47247640        0       0.23228493      -0.27447295       1.41733344       0.21200842       0.18702140       0.85529852
Al       0.01802692       1.81430744       5.03506514        1       0.60360786      -0.42930228      -1.11140719       0.03760194      -0.69444364      -0.55142325
N        1.59518018       0.85128051       4.42414643        2       0.09084674       0.02420621      -0.77345535      -0.19470191       0.84070694       0.01228496
N       -0.01452982       1.83034434       1.92467357        3      -0.92673953       0.67956903       0.46752921      -0.05490839      -0.33328491      -0.31616011
4
Lattice="3.128588 0.0 0.0 -1.5642939988088433 2.709436998432005 0.0 0.0 0.0 5.016955" Properties=species:S:1:pos:R:3:spacegroup_kinds:I:1:momenta:R:3:forces:R:3 spacegroup="P 1" unit_cell=conventional occupancy="_JSON {\"0\": {\"Al\": 1}, \"1\": {\"Al\": 1}, \"2\": {\"N\": 1}, \"3\": {\"N\": 1}}" energy=-29.623741149902344 free_energy=-29.623741149902344 stress="0.004300403408706188 -0.008672559633851051 0.002881772583350539 -0.008672559633851051 -0.006943666376173496 -0.004434502683579922 0.002881772583350539 -0.004434502683579922 -0.014839015901088715" pbc="T T T"
Al       1.54321201       0.89379624       2.53645988        0      -0.00705406      -0.41529131       0.79444759      -0.25250223       0.39302740      -0.87834299
Al       0.03580899       1.79893955       4.98957809        1       0.09337952      -0.29525099      -0.61191795      -0.16600728       0.14057975       0.62744755
N        1.59619764       0.90645091       4.40111844        2      -0.02189836       1.09350598       0.27120847      -0.08899979      -0.09593697       0.34911305
N       -0.05911259       1.83464210       1.91219260        3      -0.06442709      -0.38296371      -0.45373811       0.50750929      -0.43767017      -0.09821740
