4
Lattice="3.128588 0.0 0.0 -1.5642939988088433 2.709436998432005 0.0 0.0 0.0 5.016955" Properties=species:S:1:pos:R:3:spacegroup_kinds:I:1:forces:R:3 spacegroup="P 1" unit_cell=conventional occupancy="_JSON {\"0\": {\"Al\": 1}, \"1\": {\"Al\": 1}, \"2\": {\"N\": 1}, \"3\": {\"N\": 1}}" energy=-29.673717498779297 free_energy=-29.673717498779297 stress="-0.0022253158967942 -1.3594744814326987e-06 -2.647174746073233e-08 -1.3594744814326987e-06 -0.002227485878393054 -4.579535328730344e-08 -2.647174746073233e-08 -4.579535328730344e-08 -0.0054537151008844376" pbc="T T T"
Al       1.56429556       0.90314476       2.50490041        0      -0.00003431       0.00002052       0.00553164
Al      -0.00000156       1.80629224       5.01337791        1       0.00003474      -0.00001903       0.00552449
N        1.56429556       0.90314476       4.41849749        2      -0.00003627       0.00001962      -0.00553075
N       -0.00000156       1.80629224       1.91001999        3       0.00003580      -0.00002120      -0.00552507
