4
Lattice="3.128588 0.0 0.0 -1.5642939988088433 2.709436998432005 0.0 0.0 0.0 5.016955" Properties=species:S:1:pos:R:3:spacegroup_kinds:I:1:momenta:R:3:forces:R:3 spacegroup="P 1" unit_cell=conventional occupancy="_JSON {\"0\": {\"Al\": 1}, \"1\": {\"Al\": 1}, \"2\": {\"N\": 1}, \"3\": {\"N\": 1}}" energy=-29.623741149902344 free_energy=-29.623741149902344 stress="0.004300524480640888 -0.008672614581882954 0.002881747903302312 -0.008672614581882954 -0.006943888030946255 -0.004434529226273298 0.002881747903302312 -0.004434529226273298 -0.014838987961411476" pbc="T T T"
Al       1.54321201       0.89379621       2.53645985        0      -0.00705497      -0.41529214       0.79444889      -0.25249833       0.39303166      -0.87834454
Al       0.03580900       1.79893953       4.98957807        1       0.09337952      -0.29525078      -0.61191879      -0.16600809       0.14057805       0.62745297
N        1.59619758       0.90645094       4.40111843        2      -0.02189824       1.09350640       0.27120803      -0.08900073      -0.09593412       0.34911096
N       -0.05911259       1.83464212       1.91219258        3      -0.06442632      -0.38296343      -0.45373811       0.50750721      -0.43767560      -0.09821969
