4
Lattice="3.128588 0.0 0.0 -1.5642939988088433 2.709436998432005 0.0 0.0 0.0 5.016955" Properties=species:S:1:pos:R:3:spacegroup_kinds:I:1:momenta:R:3:forces:R:3 spacegroup="P 1" unit_cell=conventional occupancy="_JSON {\"0\": {\"Al\": 1}, \"1\": {\"Al\": 1}, \"2\": {\"N\": 1}, \"3\": {\"N\": 1}}" energy=-29.673717498779297 free_energy=-29.673717498779297 stress="-0.0022252327762544155 -1.3154466387277353e-06 -1.8068311291585815e-08 -1.3154466387277353e-06 -0.0022274726070463657 -5.982227690992659e-08 -1.8068311291585815e-08 -5.982227690992659e-08 -0.0054536364041268826" pbc="T T T"
Al       1.56429556       0.90314476       2.50490041        0       0.68448204       0.53670047       0.91071479      -0.00003405       0.00002136       0.00553187
Al      -0.00000156       1.80629224       5.01337791        1       0.31075784       0.39520501      -1.87833745       0.00003463      -0.00001991       0.00552469
N        1.56429556       0.90314476       4.41849749        2      -0.23293981      -0.79739853      -0.40745139      -0.00003661       0.00002039      -0.00553137
N       -0.00000156       1.80629224       1.91001999        3      -0.76230006      -0.13450696       1.37507406       0.00003600      -0.00002178      -0.00552486
4
Lattice="3.128588 0.0 0.0 -1.5642939988088433 2.709436998432005 0.0 0.0 0.0 5.016955" Properties=species:S:1:pos:R:3:spacegroup_kinds:I:1:momenta:R:3:forces:R:3 spacegroup="P 1" unit_cell=conventional occupancy="_JSON {\"0\": {\"Al\": 1}, \"1\": {\"Al\": 1}, \"2\": {\"N\": 1}, \"3\": {\"N\": 1}}" energy=-29.43359375 free_energy=-29.43359375 stress="-0.013773495331406593 -0.01644640602171421 0.012948773801326752 -0.01644640602171421 -0.023968711495399475 0.009969747625291348 0.012948773801326752 0.009969747625291348 -0.012059560976922512" pbc="T T T"
Al       1.60246141       0.92231284       2.54150848        0       0.57498216      -0.13491973       1.02882463      -1.31301296      -0.49033475      -0.87831539
Al       0.00328788       1.81111140       4.94718775        1      -0.44725813       0.00118058      -1.07867296      -0.30154213      -0.59423292       1.18011844
N        1.53678588       0.85870779       4.38099594        2       0.14052043      -0.46066734       0.20203871       0.28490815       0.67984539       1.25553679
N       -0.05228246       1.80432670       2.00436659        3      -0.26824446       0.59440649      -0.15219038       1.32964683       0.40472212      -1.55733991
4
Lattice="3.128588 0.0 0.0 -1.5642939988088433 2.709436998432005 0.0 0.0 0.0 5.016955" Properties=species:S:1:pos:R:3:spacegroup_kinds:I:1:momenta:R:3:forces:R:3 spacegroup="P 1" unit_cell=conventional occupancy="_JSON {\"0\": {\"Al\": 1}, \"1\": {\"Al\": 1}, \"2\": {\"N\": 1}, \"3\": {\"N\": 1}}" energy=-29.567256927490234 free_energy=-29.567256927490234 stress="0.012915750965476036 0.0017024623230099678 0.0035793958231806755 0.0017024623230099678 -0.02585695870220661 -0.005369131453335285 0.0035793958231806755 -0.005369131453335285 -0.011435158550739288" pbc="T T T"
Al       1.59598185       0.90138487       2.55101264        0      -0.85004015      -0.64755180      -0.41676304      -0.33522642       0.74370372      -1.26921177
Al      -0.01311801       1.79082858       4.96769659        1      -0.24557046      -0.74327806       1.65595785      -0.18280263      -0.17026684       1.21499634
N        1.52960410       0.86779350       4.41996341        2       0.16413095       0.60763584       0.63654569       0.31887686       0.39321405      -0.09056978
N       -0.00060094       1.87475188       1.90756519        3       0.93147965       0.78319400      -1.87574051       0.19915234      -0.96665096       0.14478542
4
Lattice="3.128588 0.0 0.0 -1.5642939988088433 2.709436998432005 0.0 0.0 0.0 5.016955" Properties=species:S:1:pos:R:3:spacegroup_kinds:I:1:momenta:R:3:forces:R:3 spacegroup="P 1" unit_cell=conventional occupancy="_JSON {\"0\": {\"Al\": 1}, \"1\": {\"Al\": 1}, \"2\": {\"N\": 1}, \"3\": {\"N\": 1}}" energy=-29.40627098083496 free_energy=-29.40627098083496 stress="0.010688981041312218 0.016498088836669922 -0.008164024911820889 0.016498088836669922 -0.009423457086086273 -0.01555397268384695 -0.008164024911820889 -0.01555397268384695 -0.061254072934389114" pbc="T T T"
Al       1.53423927       0.87298461       2.51007452        0      -1.60925400       0.09619201      -1.03262272       0.74608755       1.00298750       0.03482397
Al      -0.01349004       1.78470221       5.05709164        1       0.21561271      -0.04339793       1.72443233       0.02271735       0.40732834      -1.66436946
N        1.55208975       0.92225131       4.42203509        2       0.38659353       0.63935809      -0.93002923       0.04495287      -0.39009541      -0.56986105
N        0.09667399       1.88681818       1.81230437        3       1.00704775      -0.69215219       0.23821961      -0.81375784      -1.02022040       2.19940615
4
Lattice="3.128588 0.0 0.0 -1.5642939988088433 2.709436998432005 0.0 0.0 0.0 5.016955" Properties=species:S:1:pos:R:3:spacegroup_kinds:I:1:momenta:R:3:forces:R:3 spacegroup="P 1" unit_cell=conventional occupancy="_JSON {\"0\": {\"Al\": 1}, \"1\": {\"Al\": 1}, \"2\": {\"N\": 1}, \"3\": {\"N\": 1}}" energy=-29.201906204223633 free_energy=-29.201906204223633 stress="-0.02644091285765171 0.03815534710884094 -0.031382668763399124 0.03815534710884094 -0.0048773325979709625 0.0015436961548402905 -0.031382668763399124 0.0015436961548402905 -0.05181986466050148" pbc="T T T"
Al       1.49382402       0.87740192       2.48150490        0      -0.08661613      -0.02748829       0.25595562       2.48428249      -0.46186635       1.22611928
Al      -0.02076736       1.79337851       5.08843293        1       0.00716742       0.60209047      -1.27068293       0.64723212       0.57433438      -2.36004353
N        1.60157221       0.96971684       4.33361320        2       0.49437266       0.53651055      -0.17473364      -0.53882480      -0.70145285       1.74609125
N        0.13924908       1.81421455       1.89535168        3      -0.41492391      -1.11111276       1.18946095      -2.59268999       0.58898485      -0.61216700
4
Lattice="3.128588 0.0 0.0 -1.5642939988088433 2.709436998432005 0.0 0.0 0.0 5.016955" Properties=species:S:1:pos:R:3:spacegroup_kinds:I:1:momenta:R:3:forces:R:3 spacegroup="P 1" unit_cell=conventional occupancy="_JSON {\"0\": {\"Al\": 1}, \"1\": {\"Al\": 1}, \"2\": {\"N\": 1}, \"3\": {\"N\": 1}}" energy=-29.574626922607422 free_energy=-29.574626922607422 stress="-0.023617876693606377 -0.014321374706923962 -0.011127970181405544 -0.014321374706923962 0.01503011118620634 -0.0028545744717121124 -0.011127970181405544 -0.0028545744717121124 -0.014440350234508514" pbc="T T T"
Al       1.53421963       0.88369269       2.53780582        0       1.55944087       0.36820910       1.55970983       0.29264337      -0.24000540      -0.91367698
Al      -0.00048006       1.82107763       4.98837341        1       1.01688570       0.86374304      -2.47525414       0.94369549       0.52251476       0.78486538
N        1.63583966       0.96584650       4.40663186        2      -0.31021894      -0.52489308       1.27117384      -1.15103793      -0.78907150       0.05687905
N       -0.01177524       1.75252283       1.90648731        3      -2.26610766      -0.70705910      -0.35562959      -0.08530087       0.50656199       0.07193249
4
Lattice="3.128588 0.0 0.0 -1.5642939988088433 2.709436998432005 0.0 0.0 0.0 5.016955" Properties=species:S:1:pos:R:3:spacegroup_kinds:I:1:momenta:R:3:forces:R:3 spacegroup="P 1" unit_cell=conventional occupancy="_JSON {\"0\": {\"Al\": 1}, \"1\": {\"Al\": 1}, \"2\": {\"N\": 1}, \"3\": {\"N\": 1}}" energy=-29.372072219848633 free_energy=-29.372072219848633 stress="-0.005629566963762045 -0.01871930994093418 0.01584947109222412 -0.01871930994093418 -0.03227289021015167 0.017212223261594772 0.01584947109222412 0.017212223261594772 -0.007298222742974758" pbc="T T T"
Al       1.57072836       0.88046442       2.56331973        0      -0.00039245      -0.37629495      -0.57844130      -1.34386516      -0.44065925      -1.50707769
Al       0.05055072       1.86456079       4.94968571        1       0.52727026       0.77034160       1.04960289      -0.49129006      -1.36433816       1.82585037
N        1.58204799       0.88176661       4.44992391        2      -0.27832267      -1.02263382      -0.55459306       0.15003753       1.16376138      -0.85894883
N       -0.12661090       1.75915455       1.88869866        3      -0.24855520       0.62858714       0.08343135       1.68511772       0.64123571       0.54017639
4
Lattice="3.128588 0.0 0.0 -1.5642939988088433 2.709436998432005 0.0 0.0 0.0 5.016955" Properties=species:S:1:pos:R:3:spacegroup_kinds:I:1:momenta:R:3:forces:R:3 spacegroup="P 1" unit_cell=conventional occupancy="_JSON {\"0\": {\"Al\": 1}, \"1\": {\"Al\": 1}, \"2\": {\"N\": 1}, \"3\": {\"N\": 1}}" energy=-29.596921920776367 free_energy=-29.596921920776367 stress="0.01597631350159645 -0.004506025463342667 0.006018652115017176 -0.004506025463342667 -0.025499476119875908 -0.004597120452672243 0.006018652115017176 -0.004597120452672243 -0.010013868100941181" pbc="T T T"
Al       1.53284807       0.86390066       2.51395074        0      -1.59464587      -0.16469676      -1.74991261      -0.27820721       0.89915973      -0.15420607
Al       0.06317842       1.83227865       5.00948384        1       0.38440009      -1.80666595       1.59449905      -0.58708203      -0.41271716       0.16725174
N        1.58572476       0.89623785       4.41422574        2       0.14193170       1.12964928      -0.09119163       0.25703877       0.38076723       0.00228066
N       -0.08152106       1.83862420       1.90381441        3       1.06831409       0.84171336       0.24660514       0.60825050      -0.86720955      -0.01532645
4
Lattice="3.128588 0.0 0.0 -1.5642939988088433 2.709436998432005 0.0 0.0 0.0 5.016955" Properties=species:S:1:pos:R:3:spacegroup_kinds:I:1:momenta:R:3:forces:R:3 spacegroup="P 1" unit_cell=conventional occupancy="_JSON {\"0\": {\"Al\": 1}, \"1\": {\"Al\": 1}, \"2\": {\"N\": 1}, \"3\": {\"N\": 1}}" energy=-29.462553024291992 free_energy=-29.462553024291992 stress="-0.005697088781744242 0.010849684476852417 -0.003906534984707832 0.010849684476852417 -0.01913381554186344 -0.012703259475529194 -0.003906534984707832 -0.012703259475529194 -0.01187121868133545" pbc="T T T"
Al       1.48347327       0.88264394       2.44527932        0      -0.30454524       1.01149507      -0.60004402       0.88393211       0.95768511       1.70776320
Al       0.06164410       1.77681260       5.07306071        1      -0.86715268      -0.75617408       0.43048772      -0.30080727       0.71655303      -1.72279572
N        1.61717710       0.94947182       4.40498425        2       0.38645880       0.04830100       0.18623288      -0.07233835      -0.67486012       0.48910597
N       -0.01486927       1.85626149       1.92266695        3       0.78523913      -0.30362201      -0.01667667      -0.51078671      -0.99937809      -0.47407344
4
Lattice="3.128588 0.0 0.0 -1.5642939988088433 2.709436998432005 0.0 0.0 0.0 5.016955" Properties=species:S:1:pos:R:3:spacegroup_kinds:I:1:momenta:R:3:forces:R:3 spacegroup="P 1" unit_cell=conventional occupancy="_JSON {\"0\": {\"Al\": 1}, \"1\": {\"Al\": 1}, \"2\": {\"N\": 1}, \"3\": {\"N\": 1}}" energy=-29.518747329711914 free_energy=-29.518747329711914 stress="-0.02337076887488365 0.006540003698319197 -0.016098059713840485 0.006540003698319197 0.006697274744510651 -0.00048243047785945237 -0.016098059713840485 -0.00048243047785945237 -0.022160151973366737" pbc="T T T"
Al       1.50607638       0.94974320       2.46463701        0       1.15921384       0.62635291       1.50689870       1.24247599      -0.60704589       1.15697479
Al       0.01335470       1.75088039       5.06242869        1      -0.91112007       0.14825235      -0.88962612       0.51474661       0.69610655      -1.43088460
N        1.62637958       0.90489619       4.42127855        2      -0.14223538      -0.64065031       0.21498349      -0.71771729      -0.51824278      -0.07985026
N        0.02538010       1.82158363       1.88963023        3      -0.10585841      -0.13395496      -0.83225618      -1.03950524       0.42918223       0.35375997
4
Lattice="3.128588 0.0 0.0 -1.5642939988088433 2.709436998432005 0.0 0.0 0.0 5.016955" Properties=species:S:1:pos:R:3:spacegroup_kinds:I:1:momenta:R:3:forces:R:3 spacegroup="P 1" unit_cell=conventional occupancy="_JSON {\"0\": {\"Al\": 1}, \"1\": {\"Al\": 1}, \"2\": {\"N\": 1}, \"3\": {\"N\": 1}}" energy=-29.605010986328125 free_energy=-29.605010986328125 stress="0.0015960210002958775 -0.006785896141082048 -0.0030953811947256327 -0.006785896141082048 0.0017806643154472113 0.0017245117342099547 -0.0030953811947256327 0.0017245117342099547 -0.023114966228604317" pbc="T T T"
Al       1.56693926       0.93861032       2.54470908        0       1.44875331      -0.98943847       1.48437233      -0.01659424      -0.29131523      -1.20299602
Al      -0.01304570       1.78057345       4.99752453        1       0.01689793       1.11024962      -1.70729870       0.38438845       0.02358406       0.50759435
N        1.58384204       0.87104971       4.42155567        2      -0.67927471      -0.02704931      -0.19037193      -0.39237016       0.15177813      -0.39792591
N        0.00122208       1.81989274       1.85992055        3      -0.78637655      -0.09376183       0.41329821       0.02457586       0.11595283       1.09332752
4
Lattice="3.128588 0.0 0.0 -1.5642939988088433 2.709436998432005 0.0 0.0 0.0 5.016955" Properties=species:S:1:pos:R:3:spacegroup_kinds:I:1:momenta:R:3:forces:R:3 spacegroup="P 1" unit_cell=conventional occupancy="_JSON {\"0\": {\"Al\": 1}, \"1\": {\"Al\": 1}, \"2\": {\"N\": 1}, \"3\": {\"N\": 1}}" energy=-29.47020721435547 free_energy=-29.47020721435547 stress="0.0032034143805503845 -0.017801403999328613 0.011838383041322231 -0.017801403999328613 -0.04134899750351906 0.007359951734542847 0.011838383041322231 0.007359951734542847 -0.005160312633961439" pbc="T T T"
Al       1.62755628       0.89950079       2.54516748        0       1.04970680      -0.99981967      -0.80202844      -1.41065216       0.15933140      -0.91778827
Al      -0.00757058       1.81703572       4.95606287        1      -0.03757987       0.11959903      -0.16512828      -0.26242688      -0.84351742       1.41445696
N        1.52756233       0.85151204       4.42065481        2      -0.42752192       0.29023032      -0.07965691       0.31765857       0.98894870      -0.00115468
N       -0.06966665       1.84442110       1.93994535        3      -0.58460507       0.58999030       1.04681363       1.35542059      -0.30476215      -0.49551389
4
Lattice="3.128588 0.0 0.0 -1.5642939988088433 2.709436998432005 0.0 0.0 0.0 5.016955" Properties=species:S:1:pos:R:3:spacegroup_kinds:I:1:momenta:R:3:forces:R:3 spacegroup="P 1" unit_cell=conventional occupancy="_JSON {\"0\": {\"Al\": 1}, \"1\": {\"Al\": 1}, \"2\": {\"N\": 1}, \"3\": {\"N\": 1}}" energy=-29.452991485595703 free_energy=-29.452991485595703 stress="-0.013224872760474682 -0.023749960586428642 0.007911479100584984 -0.023749960586428642 -0.04793189465999603 -0.007333357818424702 0.007911479100584984 -0.007333357818424702 0.028633039444684982" pbc="T T T"
Al       1.63184037       0.85684025       2.46693548        0      -0.97589051      -0.55899596      -1.34838305      -1.39009726       1.11026442       1.17304099
Al      -0.02377746       1.82170283       4.98999599        1      -0.28018847       0.45883545       1.28013451      -0.08532441       0.08283357       0.34696904
N        1.52792699       0.92957747       4.44479008        2       0.11446489       0.97873225       0.08012598       0.22036006      -0.17398685       0.05598830
N       -0.04718864       1.83921503       2.00086005        3       1.14161405      -0.87857174      -0.01187738       1.25506186      -1.01911128      -1.57599819
4
Lattice="3.128588 0.0 0.0 -1.5642939988088433 2.709436998432005 0.0 0.0 0.0 5.016955" Properties=species:S:1:pos:R:3:spacegroup_kinds:I:1:momenta:R:3:forces:R:3 spacegroup="P 1" unit_cell=conventional occupancy="_JSON {\"0\": {\"Al\": 1}, \"1\": {\"Al\": 1}, \"2\": {\"N\": 1}, \"3\": {\"N\": 1}}" energy=-29.53631591796875 free_energy=-29.53631591796875 stress="-0.0198576208204031 0.013828995637595654 -0.005717345979064703 0.013828995637595654 -0.0031639053486287594 -0.0016709240153431892 -0.005717345979064703 -0.0016709240153431892 -0.006260567344725132" pbc="T T T"
Al       1.56291508       0.86348346       2.43836897        0      -1.44558729       0.38889174       0.34074974       0.67285812       0.11609145       1.45909572
Al      -0.01834143       1.83613138       5.05736566        1       0.19731546      -0.00921559       1.04742099       0.06595323       0.15003611      -1.19267356
N        1.54726695       0.95741147       4.47045642        2      -0.01024043       0.05685076       0.14843976       0.09761371      -0.44420958      -0.65174794
N        0.05576967       1.77068660       1.90062727        3       1.25851225      -0.43652684      -1.53661048      -0.83642507       0.17808199       0.38532582
4
Lattice="3.128588 0.0 0.0 -1.5642939988088433 2.709436998432005 0.0 0.0 0.0 5.016955" Properties=species:S:1:pos:R:3:spacegroup_kinds:I:1:momenta:R:3:forces:R:3 spacegroup="P 1" unit_cell=conventional occupancy="_JSON {\"0\": {\"Al\": 1}, \"1\": {\"Al\": 1}, \"2\": {\"N\": 1}, \"3\": {\"N\": 1}}" energy=-29.5310001373291 free_energy=-29.5310001373291 stress="-0.018293749541044235 0.015707507729530334 -0.01160768885165453 0.015707507729530334 0.0031481324695050716 0.004605670925229788 -0.01160768885165453 0.004605670925229788 -0.017258863896131516" pbc="T T T"
Al       1.54701078       0.87273545       2.46070914        0       0.71855797      -0.11584371       0.49435311       1.07476747      -0.28505796       1.06925392
Al      -0.01761627       1.84389396       5.05391117        1       0.19346410       0.17720425      -0.69190062       0.23187649      -0.07941929      -1.16825056
N        1.56395348       0.94331125       4.45961397        2       0.32487441      -0.12409421      -0.51346203      -0.11547139      -0.20503256      -0.72920269
N        0.06831345       1.75176757       1.87546340        3      -1.23689648       0.06273373       0.71100956      -1.19117248       0.56950998       0.82819927
4
Lattice="3.128588 0.0 0.0 -1.5642939988088433 2.709436998432005 0.0 0.0 0.0 5.016955" Properties=species:S:1:pos:R:3:spacegroup_kinds:I:1:momenta:R:3:forces:R:3 spacegroup="P 1" unit_cell=conventional occupancy="_JSON {\"0\": {\"Al\": 1}, \"1\": {\"Al\": 1}, \"2\": {\"N\": 1}, \"3\": {\"N\": 1}}" energy=-29.61321258544922 free_energy=-29.61321258544922 stress="-0.008382034488022327 -0.00427668821066618 0.005492838565260172 -0.00427668821066618 -0.013936927542090416 0.0014804867096245289 0.005492838565260172 0.0014804867096245289 0.012475564144551754" pbc="T T T"
Al       1.57767912       0.87033376       2.48321561        0       0.42145791      -0.10086090       0.75449402      -0.50599426       0.14215107       0.64867514
Al       0.00878680       1.84488741       5.00616581        1       0.94842461       0.04829676      -0.67234648      -0.28190896      -0.37569755       0.05942870
N        1.54733735       0.91884313       4.41695259        2      -0.50233531      -0.06173885      -0.86681606       0.26756680       0.16352478       0.34766772
N       -0.02491947       1.77881438       1.96659662        3      -0.86754717       0.11430305       0.78466855       0.52033651       0.07002167      -1.05577147
4
Lattice="3.128588 0.0 0.0 -1.5642939988088433 2.709436998432005 0.0 0.0 0.0 5.016955" Properties=species:S:1:pos:R:3:spacegroup_kinds:I:1:momenta:R:3:forces:R:3 spacegroup="P 1" unit_cell=conventional occupancy="_JSON {\"0\": {\"Al\": 1}, \"1\": {\"Al\": 1}, \"2\": {\"N\": 1}, \"3\": {\"N\": 1}}" energy=-29.55784034729004 free_energy=-29.55784034729004 stress="-0.016364069655537605 -0.0029476950876414776 0.012903775088489056 -0.0029476950876414776 -0.006207642611116171 0.0015376430237665772 0.012903775088489056 0.0015376430237665772 -0.0027144344057887793" pbc="T T T"
Al       1.59068812       0.88023425       2.52274582        0      -0.41625654       0.17887071       0.33160811      -0.90884387      -0.14031039      -0.36867788
Al       0.01872289       1.83477379       4.97781995        1       0.14973979      -0.20763067      -0.17578570      -0.72829837      -0.10046360       0.72652537
N        1.52039171       0.92489994       4.39464377        2       0.19754365       0.25939884       0.47781794       0.72475946      -0.09604986       0.71574104
N       -0.04216859       1.77342031       1.96745694        3       0.06897309      -0.23063886      -0.63364038       0.91238284       0.33682370      -1.07358873
4
Lattice="3.128588 0.0 0.0 -1.5642939988088433 2.709436998432005 0.0 0.0 0.0 5.016955" Properties=species:S:1:pos:R:3:spacegroup_kinds:I:1:momenta:R:3:forces:R:3 spacegroup="P 1" unit_cell=conventional occupancy="_JSON {\"0\": {\"Al\": 1}, \"1\": {\"Al\": 1}, \"2\": {\"N\": 1}, \"3\": {\"N\": 1}}" energy=-29.62111473083496 free_energy=-29.62111473083496 stress="-0.02150092087686062 0.005276523996144533 -0.0032674139365553856 0.005276523996144533 0.010657664388418198 0.0019249320030212402 -0.0032674139365553856 0.0019249320030212402 -0.0015898009296506643" pbc="T T T"
Al       1.54767648       0.89587761       2.50832857        0      -0.85809917       0.46896603      -1.00002941       0.39160460      -0.39029151      -0.15032393
Al       0.00665801       1.82067515       5.00342494        1      -0.72966920      -0.11082695       1.46536634      -0.00949804       0.22696719       0.34862834
N        1.57185928       0.94293299       4.45440722        2       0.62349844      -0.37686480       0.64593136      -0.01969813      -0.43335056      -0.83890045
N        0.01256037       1.75229420       1.88600535        3       0.96426991       0.01872577      -1.11126833      -0.36240831       0.59667522       0.64059609
4
Lattice="3.128588 0.0 0.0 -1.5642939988088433 2.709436998432005 0.0 0.0 0.0 5.016955" Properties=species:S:1:pos:R:3:spacegroup_kinds:I:1:momenta:R:3:forces:R:3 spacegroup="P 1" unit_cell=conventional occupancy="_JSON {\"0\": {\"Al\": 1}, \"1\": {\"Al\": 1}, \"2\": {\"N\": 1}, \"3\": {\"N\": 1}}" energy=-29.520856857299805 free_energy=-29.520856857299805 stress="-0.014047232456505299 0.0118208983913064 -0.014255622401833534 0.0118208983913064 -0.005614674650132656 0.009361532516777515 -0.014255622401833534 0.009361532516777515 -0.019571028649806976" pbc="T T T"
Al       1.52999432       0.91403919       2.46474573        0       0.09545175      -0.23101189      -1.18071314       1.21874833      -0.63577414       0.99289620
Al      -0.00890654       1.82180732       5.05208963        1       0.31216956      -0.10747462       0.45537738       0.39472657      -0.38378233      -1.12709844
N        1.59437708       0.88605555       4.45928983        2      -0.04799027      -0.53350337      -0.20523291      -0.40810341       0.35578921      -0.79021710
N        0.05384442       1.77207214       1.87145000        3      -0.35963106       0.87198995       0.93056871      -1.20537150       0.66376710       0.92441916
4
Lattice="3.128588 0.0 0.0 -1.5642939988088433 2.709436998432005 0.0 0.0 0.0 5.016955" Properties=species:S:1:pos:R:3:spacegroup_kinds:I:1:momenta:R:3:forces:R:3 spacegroup="P 1" unit_cell=conventional occupancy="_JSON {\"0\": {\"Al\": 1}, \"1\": {\"Al\": 1}, \"2\": {\"N\": 1}, \"3\": {\"N\": 1}}" energy=-29.61878776550293 free_energy=-29.61878776550293 stress="0.01011767890304327 -0.0018218789482489228 -0.0018730273004621267 -0.0018218789482489228 -0.02478310838341713 0.004591118544340134 -0.0018730273004621267 0.004591118544340134 2.6324149075662717e-05" pbc="T T T"
Al       1.53818034       0.90928020       2.47247635        0       0.23228449      -0.27447372       1.41733274       0.21201020       0.18702230       0.85530704
Al       0.01802692       1.81430742       5.03506514        1       0.60360822      -0.42930261      -1.11140681       0.03760055      -0.69444072      -0.55142581
N        1.59518012       0.85128048       4.42414643        2       0.09084639       0.02420703      -0.77345534      -0.19470154       0.84070528       0.01228201
N       -0.01452988       1.83034432       1.92467354        3      -0.92673912       0.67956939       0.46752943      -0.05490921      -0.33328688      -0.31616327
4
Lattice="3.128588 0.0 0.0 -1.5642939988088433 2.709436998432005 0.0 0.0 0.0 5.016955" Properties=species:S:1:pos:R:3:spacegroup_kinds:I:1:momenta:R:3:forces:R:3 spacegroup="P 1" unit_cell=conventional occupancy="_JSON {\"0\": {\"Al\": 1}, \"1\": {\"Al\": 1}, \"2\": {\"N\": 1}, \"3\": {\"N\": 1}}" energy=-29.623741149902344 free_energy=-29.623741149902344 stress="0.004300524480640888 -0.008672614581882954 0.002881747903302312 -0.008672614581882954 -0.006943888030946255 -0.004434529226273298 0.002881747903302312 -0.004434529226273298 -0.014838987961411476" pbc="T T T"
Al       1.54321201       0.89379621       2.53645985        0      -0.00705497      -0.41529214       0.79444889      -0.25249833       0.39303166      -0.87834454
Al       0.03580900       1.79893953       4.98957807        1       0.09337952      -0.29525078      -0.61191879      -0.16600809       0.14057805       0.62745297
N        1.59619758       0.90645094       4.40111843        2      -0.02189824       1.09350640       0.27120803      -0.08900073      -0.09593412       0.34911096
N       -0.05911259       1.83464212       1.91219258        3      -0.06442632      -0.38296343      -0.45373811       0.50750721      -0.43767560      -0.09821969
