4
Lattice="3.128588 0.0 0.0 -1.5642939988088433 2.709436998432005 0.0 0.0 0.0 5.016955" Properties=species:S:1:pos:R:3:spacegroup_kinds:I:1:forces:R:3 spacegroup="P 1" unit_cell=conventional occupancy="_JSON {\"0\": {\"Al\": 1}, \"1\": {\"Al\": 1}, \"2\": {\"N\": 1}, \"3\": {\"N\": 1}}" energy=-29.673717498779297 free_energy=-29.673717498779297 stress="-0.0022252327762544155 -1.3154466387277353e-06 -1.8068311291585815e-08 -1.3154466387277353e-06 -0.0022274726070463657 -5.982227690992659e-08 -1.8068311291585815e-08 -5.982227690992659e-08 -0.0054536364041268826" pbc="T T T"
Al       1.56429556       0.90314476       2.50490041        0      -0.00003405       0.00002136       0.00553187
Al      -0.00000156       1.80629224       5.01337791        1       0.00003463      -0.00001991       0.00552469
N        1.56429556       0.90314476       4.41849749        2      -0.00003661       0.00002039      -0.00553137
N       -0.00000156       1.80629224       1.91001999        3       0.00003600      -0.00002178      -0.00552486
