4
Lattice="3.128588 0.0 0.0 -1.5642939988088433 2.709436998432005 0.0 0.0 0.0 5.016955" Properties=species:S:1:pos:R:3:spacegroup_kinds:I:1:forces:R:3 spacegroup="P 1" unit_cell=conventional occupancy="_JSON {\"0\": {\"Al\": 1}, \"1\": {\"Al\": 1}, \"2\": {\"N\": 1}, \"3\": {\"N\": 1}}" energy=-29.673717498779297 free_energy=-29.673717498779297 stress="-0.0022255524527281523 -1.386532062497281e-06 1.499276258698501e-08 -1.386532062497281e-06 -0.0022275899536907673 -1.482046751988264e-08 1.499276258698501e-08 -1.482046751988264e-08 -0.0054536317475140095" pbc="T T T"
Al       1.56429556       0.90314476       2.50490041        0      -0.00003466       0.00002047       0.00553244
Al      -0.00000156       1.80629224       5.01337791        1       0.00003422      -0.00002044       0.00552413
N        1.56429556       0.90314476       4.41849749        2      -0.00003601       0.00002064      -0.00553093
N       -0.00000156       1.80629224       1.91001999        3       0.00003638      -0.00002072      -0.00552603
