32
Lattice="6.17176593 0.0 0.0 0.0 8.01859859 0.0 0.0 0.0 13.03281824" Properties=species:S:1:pos:R:3:spacegroup_kinds:I:1:forces:R:3 spacegroup="P 1" unit_cell=conventional occupancy="_JSON {\"0\": {\"Li\": 1}, \"1\": {\"Li\": 1}, \"2\": {\"Li\": 1}, \"3\": {\"Li\": 1}, \"4\": {\"Li\": 1}, \"5\": {\"Li\": 1}, \"6\": {\"Li\": 1}, \"7\": {\"Li\": 1}, \"8\": {\"Li\": 1}, \"9\": {\"Li\": 1}, \"10\": {\"Li\": 1}, \"11\": {\"Li\": 1}, \"12\": {\"P\": 1}, \"13\": {\"P\": 1}, \"14\": {\"P\": 1}, \"15\": {\"P\": 1}, \"16\": {\"S\": 1}, \"17\": {\"S\": 1}, \"18\": {\"S\": 1}, \"19\": {\"S\": 1}, \"20\": {\"S\": 1}, \"21\": {\"S\": 1}, \"22\": {\"S\": 1}, \"23\": {\"S\": 1}, \"24\": {\"S\": 1}, \"25\": {\"S\": 1}, \"26\": {\"S\": 1}, \"27\": {\"S\": 1}, \"28\": {\"S\": 1}, \"29\": {\"S\": 1}, \"30\": {\"S\": 1}, \"31\": {\"S\": 1}}" energy=-140.3463134765625 free_energy=-140.3463134765625 stress="-0.0028886464424431324 -1.2987406705633475e-08 -1.0558204976973684e-08 -1.2987406705633475e-08 -0.004072258248925209 1.1782634423695981e-08 -1.0558204976973684e-08 1.1782634423695981e-08 -0.0025936062447726727" pbc="T T T"
Li       2.40166815       0.26892250       4.33377963        0      -0.01549015       0.00236031       0.00063502
Li       3.77009790       7.74967599       8.69903848        1       0.01548884      -0.00236113      -0.00063216
Li       5.48755103       7.74967602       2.18262939        2      -0.01549293      -0.00235976      -0.00063302
Li       0.68421473       0.26892246      10.85018874        3       0.01549416       0.00236415       0.00063256
Li       3.77009790       4.27822189       8.69903840        4       0.01548791       0.00235819      -0.00063489
Li       2.40166819       3.74037677       4.33377961        5      -0.01549051      -0.00236032       0.00063409
Li       0.68421482       3.74037679      10.85018870        6       0.01549070      -0.00236157       0.00063179
Li       5.48755100       4.27822187       2.18262939        7      -0.01549180       0.00236021      -0.00062938
Li       3.08588289      -0.00000010       0.00000007        8      -0.00000043       0.00000114      -0.00000026
Li       0.00000002      -0.00000006       6.51640919        9       0.00000146       0.00000171      -0.00000053
Li       3.08588297       4.00929940       0.00000006       10      -0.00000248       0.00000033       0.00000270
Li       0.00000001       4.00929925       6.51640918       11      -0.00000002      -0.00000140      -0.00000137
P        0.93932953       2.00464931       1.16793464       12      -0.00066870       0.00001499       0.03303247
P        5.23243633       6.01394876      11.86488430       13       0.00066557       0.00000599      -0.03305592
P        4.02521221       6.01394894       5.34847531       14      -0.00065164       0.00000128      -0.03306235
P        2.14655385       2.00464967       7.68434325       15       0.00065316       0.00000045       0.03305100
S        5.07612372       2.00464972       1.30682513       16       0.00280074      -0.00000174       0.01274861
S        1.09564238       6.01394881      11.72599299       17      -0.00280196      -0.00000077      -0.01274538
S        1.99024104       6.01394890       5.20958387       18       0.00279401       0.00000042      -0.01274452
S        4.18152503       2.00464973       7.82323415       19      -0.00279159       0.00000162       0.01274804
S        1.68772170       2.00464972      12.25093571       20       0.03397090      -0.00000072       0.02524793
S        4.48404413       6.01394888       0.78188258       21      -0.03397293      -0.00000059      -0.02523819
S        4.77360469       6.01394892       7.29829152       22       0.03397112       0.00000057      -0.02524009
S        1.39816137       2.00464970       5.73452695       23      -0.03397291      -0.00000001       0.02524058
S        1.68016691       0.28147998       2.00960381       24       0.02273698      -0.00260391      -0.01691553
S        4.49159900       7.73711932      11.02321410       25      -0.02272909       0.00258427       0.01692593
S        4.76604986       7.73711923       4.50680508       26       0.02272843       0.00258008       0.01693022
S        1.40571581       0.28147964       8.52601308       27      -0.02272796      -0.00258487      -0.01692825
S        4.49159900       4.29077889      11.02321425       28      -0.02273262      -0.00259048       0.01692376
S        1.68016702       3.72781958       2.00960387       29       0.02273144       0.00258739      -0.01692498
S        1.40571585       3.72781967       8.52601311       30      -0.02272728       0.00258696      -0.01692785
S        4.76604993       4.29077868       4.50680503       31       0.02272969      -0.00258252       0.01693010
