32
Lattice="6.17176593 0.0 0.0 0.0 8.01859859 0.0 0.0 0.0 13.03281824" Properties=species:S:1:pos:R:3:spacegroup_kinds:I:1:forces:R:3 spacegroup="P 1" unit_cell=conventional occupancy="_JSON {\"0\": {\"Li\": 1}, \"1\": {\"Li\": 1}, \"2\": {\"Li\": 1}, \"3\": {\"Li\": 1}, \"4\": {\"Li\": 1}, \"5\": {\"Li\": 1}, \"6\": {\"Li\": 1}, \"7\": {\"Li\": 1}, \"8\": {\"Li\": 1}, \"9\": {\"Li\": 1}, \"10\": {\"Li\": 1}, \"11\": {\"Li\": 1}, \"12\": {\"P\": 1}, \"13\": {\"P\": 1}, \"14\": {\"P\": 1}, \"15\": {\"P\": 1}, \"16\": {\"S\": 1}, \"17\": {\"S\": 1}, \"18\": {\"S\": 1}, \"19\": {\"S\": 1}, \"20\": {\"S\": 1}, \"21\": {\"S\": 1}, \"22\": {\"S\": 1}, \"23\": {\"S\": 1}, \"24\": {\"S\": 1}, \"25\": {\"S\": 1}, \"26\": {\"S\": 1}, \"27\": {\"S\": 1}, \"28\": {\"S\": 1}, \"29\": {\"S\": 1}, \"30\": {\"S\": 1}, \"31\": {\"S\": 1}}" energy=-140.3463134765625 free_energy=-140.3463134765625 stress="-0.0028886510990560055 -3.0379574411654175e-09 -1.5074897774525198e-08 -3.0379574411654175e-09 -0.004072281066328287 2.6738769420830977e-08 -1.5074897774525198e-08 2.6738769420830977e-08 -0.0025935666635632515" pbc="T T T"
Li       2.40166816       0.26892249       4.33377959        0      -0.01548958       0.00236021       0.00063499
Li       3.77009792       7.74967600       8.69903847        1       0.01548876      -0.00236035      -0.00063182
Li       5.48755105       7.74967601       2.18262942        2      -0.01549305      -0.00236016      -0.00063295
Li       0.68421479       0.26892249      10.85018872        3       0.01549149       0.00236183       0.00063154
Li       3.77009787       4.27822187       8.69903843        4       0.01548836       0.00235840      -0.00063389
Li       2.40166816       3.74037678       4.33377961        5      -0.01548961      -0.00235971       0.00063392
Li       0.68421480       3.74037681      10.85018871        6       0.01549090      -0.00236047       0.00063252
Li       5.48755103       4.27822188       2.18262938        7      -0.01549176       0.00235988      -0.00063023
Li       3.08588291      -0.00000001      -0.00000003        8       0.00000027       0.00000138      -0.00000141
Li       0.00000002      -0.00000002       6.51640916        9       0.00000105       0.00000193      -0.00000212
Li       3.08588295       4.00929941       0.00000009       10      -0.00000176      -0.00000224       0.00000147
Li       0.00000002       4.00929925       6.51640913       11       0.00000116      -0.00000056      -0.00000156
P        0.93932954       2.00464931       1.16793478       12      -0.00066892       0.00001481       0.03303406
P        5.23243628       6.01394882      11.86488432       13       0.00066639       0.00000713      -0.03305875
P        4.02521224       6.01394896       5.34847533       14      -0.00065138       0.00000359      -0.03306333
P        2.14655382       2.00464971       7.68434320       15       0.00065430      -0.00000073       0.03305271
S        5.07612367       2.00464965       1.30682508       16       0.00280091       0.00000062       0.01274913
S        1.09564233       6.01394885      11.72599294       17      -0.00280044      -0.00000043      -0.01274717
S        1.99024105       6.01394889       5.20958388       18       0.00279149       0.00000105      -0.01274379
S        4.18152500       2.00464962       7.82323417       19      -0.00279342      -0.00000193       0.01274801
S        1.68772172       2.00464970      12.25093568       20       0.03397168      -0.00000001       0.02524728
S        4.48404417       6.01394888       0.78188253       21      -0.03397322      -0.00000065      -0.02523668
S        4.77360467       6.01394893       7.29829152       22       0.03397318       0.00000142      -0.02523604
S        1.39816136       2.00464969       5.73452694       23      -0.03397369      -0.00000027       0.02524016
S        1.68016690       0.28147996       2.00960379       24       0.02273744      -0.00260098      -0.01691414
S        4.49159898       7.73711926      11.02321412       25      -0.02272957       0.00258446       0.01692504
S        4.76604993       7.73711924       4.50680514       26       0.02272835       0.00258212       0.01692855
S        1.40571581       0.28147962       8.52601309       27      -0.02272739      -0.00258593      -0.01692820
S        4.49159903       4.29077888      11.02321425       28      -0.02273407      -0.00259334       0.01692365
S        1.68016704       3.72781957       2.00960403       29       0.02273063       0.00258673      -0.01692224
S        1.40571580       3.72781968       8.52601308       30      -0.02272756       0.00258530      -0.01692740
S        4.76604994       4.29077866       4.50680504       31       0.02272899      -0.00258310       0.01692864
