4
Lattice="3.128588 0.0 0.0 -1.5642939988088433 2.709436998432005 0.0 0.0 0.0 5.016955" Properties=species:S:1:pos:R:3:spacegroup_kinds:I:1:forces:R:3 spacegroup="P 1" unit_cell=conventional occupancy="_JSON {\"0\": {\"Al\": 1}, \"1\": {\"Al\": 1}, \"2\": {\"N\": 1}, \"3\": {\"N\": 1}}" energy=-29.673717498779297 free_energy=-29.673717498779297 stress="-0.0022254185751080513 -1.3747036291533732e-06 -2.795020748180832e-08 -1.3747036291533732e-06 -0.00222761114127934 -6.639415772724533e-08 -2.795020748180832e-08 -6.639415772724533e-08 -0.005453746300190687" pbc="T T T"
Al       1.56429556       0.90314476       2.50490041        0      -0.00003517       0.00002055       0.00553285
Al      -0.00000156       1.80629224       5.01337791        1       0.00003435      -0.00001900       0.00552313
N        1.56429556       0.90314476       4.41849749        2      -0.00003655       0.00001962      -0.00552948
N       -0.00000156       1.80629224       1.91001999        3       0.00003729      -0.00002115      -0.00552610
