4
Lattice="3.128588 0.0 0.0 -1.5642939988088433 2.709436998432005 0.0 0.0 0.0 5.016955" Properties=species:S:1:pos:R:3:spacegroup_kinds:I:1:forces:R:3 spacegroup="P 1" unit_cell=conventional occupancy="_JSON {\"0\": {\"Al\": 1}, \"1\": {\"Al\": 1}, \"2\": {\"N\": 1}, \"3\": {\"N\": 1}}" energy=-29.673717498779297 free_energy=-29.673717498779297 stress="-0.0022254062350839376 -1.374844600832148e-06 -5.005023950843679e-08 -1.374844600832148e-06 -0.002227448858320713 -3.788335334320436e-08 -5.005023950843679e-08 -3.788335334320436e-08 -0.005453658755868673" pbc="T T T"
Al       1.56429556       0.90314476       2.50490041        0      -0.00003424       0.00002124       0.00553220
Al      -0.00000156       1.80629224       5.01337791        1       0.00003415      -0.00001856       0.00552505
N        1.56429556       0.90314476       4.41849749        2      -0.00003609       0.00001897      -0.00553156
N       -0.00000156       1.80629224       1.91001999        3       0.00003611      -0.00002172      -0.00552561
