4
Lattice="3.128588 0.0 0.0 -1.5642939988088433 2.709436998432005 0.0 0.0 0.0 5.016955" Properties=species:S:1:pos:R:3:spacegroup_kinds:I:1:momenta:R:3:forces:R:3 spacegroup="P 1" unit_cell=conventional occupancy="_JSON {\"0\": {\"Al\": 1}, \"1\": {\"Al\": 1}, \"2\": {\"N\": 1}, \"3\": {\"N\": 1}}" energy=-29.623743057250977 free_energy=-29.623743057250977 stress="0.004300600849092007 -0.008672612719237804 0.00288186501711607 -0.008672612719237804 -0.006943711079657078 -0.004434541333466768 0.00288186501711607 -0.004434541333466768 -0.014839212410151958" pbc="T T T"
Al       1.54321203       0.89379623       2.53645985        0      -0.00705465      -0.41529161       0.79445009      -0.25250003       0.39303070      -0.87834620
Al       0.03580897       1.79893951       4.98957806        1       0.09337963      -0.29525151      -0.61191970      -0.16601244       0.14058213       0.62745345
N        1.59619754       0.90645094       4.40111848        2      -0.02189849       1.09350705       0.27120830      -0.08899590      -0.09593841       0.34911051
N       -0.05911258       1.83464209       1.91219263        3      -0.06442651      -0.38296392      -0.45373859       0.50750840      -0.43767437      -0.09821820
