4
Lattice="3.128588 0.0 0.0 -1.5642939988088433 2.709436998432005 0.0 0.0 0.0 5.016955" Properties=species:S:1:pos:R:3:spacegroup_kinds:I:1:momenta:R:3:forces:R:3 spacegroup="P 1" unit_cell=conventional occupancy="_JSON {\"0\": {\"Al\": 1}, \"1\": {\"Al\": 1}, \"2\": {\"N\": 1}, \"3\": {\"N\": 1}}" energy=-29.673717498779297 free_energy=-29.673717498779297 stress="-0.002225178061053157 -1.3583985492005013e-06 -4.482375715042508e-08 -1.3583985492005013e-06 -0.002227319171652198 -4.4512038499533446e-08 -4.482375715042508e-08 -4.4512038499533446e-08 -0.00545373372733593" pbc="T T T"
Al       1.56429556       0.90314476       2.50490041        0       0.68448204       0.53670047       0.91071479      -0.00003326       0.00002077       0.00553251
Al      -0.00000156       1.80629224       5.01337791        1       0.31075784       0.39520501      -1.87833745       0.00003439      -0.00001959       0.00552331
N        1.56429556       0.90314476       4.41849749        2      -0.23293981      -0.79739853      -0.40745139      -0.00003588       0.00001973      -0.00553053
N       -0.00000156       1.80629224       1.91001999        3      -0.76230006      -0.13450696       1.37507406       0.00003470      -0.00002109      -0.00552509
4
Lattice="3.128588 0.0 0.0 -1.5642939988088433 2.709436998432005 0.0 0.0 0.0 5.016955" Properties=species:S:1:pos:R:3:spacegroup_kinds:I:1:momenta:R:3:forces:R:3 spacegroup="P 1" unit_cell=conventional occupancy="_JSON {\"0\": {\"Al\": 1}, \"1\": {\"Al\": 1}, \"2\": {\"N\": 1}, \"3\": {\"N\": 1}}" energy=-29.433591842651367 free_energy=-29.433591842651367 stress="-0.013773503713309765 -0.016446374356746674 0.012948807328939438 -0.016446374356746674 -0.023968828842043877 0.009969736449420452 0.012948807328939438 0.009969736449420452 -0.012059448286890984" pbc="T T T"
Al       1.60246141       0.92231283       2.54150848        0       0.57498209      -0.13492002       1.02882468      -1.31301343      -0.49033430      -0.87831420
Al       0.00328788       1.81111140       4.94718774        1      -0.44725813       0.00118065      -1.07867316      -0.30154300      -0.59423298       1.18011820
N        1.53678588       0.85870780       4.38099595        2       0.14052042      -0.46066735       0.20203880       0.28490916       0.67984498       1.25553751
N       -0.05228246       1.80432671       2.00436659        3      -0.26824441       0.59440672      -0.15219037       1.32964730       0.40472245      -1.55734169
4
Lattice="3.128588 0.0 0.0 -1.5642939988088433 2.709436998432005 0.0 0.0 0.0 5.016955" Properties=species:S:1:pos:R:3:spacegroup_kinds:I:1:momenta:R:3:forces:R:3 spacegroup="P 1" unit_cell=conventional occupancy="_JSON {\"0\": {\"Al\": 1}, \"1\": {\"Al\": 1}, \"2\": {\"N\": 1}, \"3\": {\"N\": 1}}" energy=-29.5672550201416 free_energy=-29.5672550201416 stress="0.01291573140770197 0.0017024828121066093 0.003579330164939165 0.0017024828121066093 -0.0258571058511734 -0.005369141697883606 0.003579330164939165 -0.005369141697883606 -0.011435232125222683" pbc="T T T"
Al       1.59598186       0.90138485       2.55101265        0      -0.85003991      -0.64755167      -0.41676262      -0.33522800       0.74370313      -1.26921248
Al      -0.01311800       1.79082859       4.96769657        1      -0.24557027      -0.74327784       1.65595756      -0.18280141      -0.17026779       1.21499693
N        1.52960410       0.86779351       4.41996342        2       0.16413075       0.60763579       0.63654580       0.31887615       0.39321393      -0.09056968
N       -0.00060095       1.87475190       1.90756518        3       0.93147937       0.78319375      -1.87574078       0.19915327      -0.96664906       0.14478540
4
Lattice="3.128588 0.0 0.0 -1.5642939988088433 2.709436998432005 0.0 0.0 0.0 5.016955" Properties=species:S:1:pos:R:3:spacegroup_kinds:I:1:momenta:R:3:forces:R:3 spacegroup="P 1" unit_cell=conventional occupancy="_JSON {\"0\": {\"Al\": 1}, \"1\": {\"Al\": 1}, \"2\": {\"N\": 1}, \"3\": {\"N\": 1}}" energy=-29.406274795532227 free_energy=-29.406274795532227 stress="0.010688955895602703 0.01649807207286358 -0.008163985796272755 0.01649807207286358 -0.00942312367260456 -0.015553935430943966 -0.008163985796272755 -0.015553935430943966 -0.06125402823090553" pbc="T T T"
Al       1.53423927       0.87298461       2.51007454        0      -1.60925403       0.09619227      -1.03262320       0.74608672       1.00298548       0.03482306
Al      -0.01349003       1.78470222       5.05709163        1       0.21561275      -0.04339789       1.72443274       0.02271255       0.40732789      -1.66436934
N        1.55208974       0.92225132       4.42203510        2       0.38659357       0.63935810      -0.93002918       0.04495765      -0.39009541      -0.56986004
N        0.09667398       1.88681817       1.81230436        3       1.00704764      -0.69215246       0.23821956      -0.81375688      -1.02021801       2.19940567
4
Lattice="3.128588 0.0 0.0 -1.5642939988088433 2.709436998432005 0.0 0.0 0.0 5.016955" Properties=species:S:1:pos:R:3:spacegroup_kinds:I:1:momenta:R:3:forces:R:3 spacegroup="P 1" unit_cell=conventional occupancy="_JSON {\"0\": {\"Al\": 1}, \"1\": {\"Al\": 1}, \"2\": {\"N\": 1}, \"3\": {\"N\": 1}}" energy=-29.201906204223633 free_energy=-29.201906204223633 stress="-0.02644103765487671 0.038155656307935715 -0.031382448971271515 0.038155656307935715 -0.004877352621406317 0.001543759717606008 -0.031382448971271515 0.001543759717606008 -0.05181996524333954" pbc="T T T"
Al       1.49382401       0.87740193       2.48150489        0      -0.08661644      -0.02748838       0.25595512       2.48428249      -0.46186990       1.22611427
Al      -0.02076734       1.79337851       5.08843293        1       0.00716749       0.60209035      -1.27068228       0.64723116       0.57433420      -2.36003971
N        1.60157218       0.96971686       4.33361319        2       0.49437275       0.53651056      -0.17473439      -0.53882259      -0.70145380       1.74608982
N        0.13924906       1.81421452       1.89535169        3      -0.41492387      -1.11111254       1.18946153      -2.59269094       0.58898932      -0.61216450
4
Lattice="3.128588 0.0 0.0 -1.5642939988088433 2.709436998432005 0.0 0.0 0.0 5.016955" Properties=species:S:1:pos:R:3:spacegroup_kinds:I:1:momenta:R:3:forces:R:3 spacegroup="P 1" unit_cell=conventional occupancy="_JSON {\"0\": {\"Al\": 1}, \"1\": {\"Al\": 1}, \"2\": {\"N\": 1}, \"3\": {\"N\": 1}}" energy=-29.574626922607422 free_energy=-29.574626922607422 stress="-0.023618029430508614 -0.014321323484182358 -0.011127989739179611 -0.014321323484182358 0.015030120499432087 -0.0028546347748488188 -0.011127989739179611 -0.0028546347748488188 -0.014440364204347134" pbc="T T T"
Al       1.53421960       0.88369268       2.53780580        0       1.55944055       0.36820884       1.55970953       0.29264164      -0.24000409      -0.91367769
Al      -0.00048006       1.82107762       4.98837343        1       1.01688455       0.86374296      -2.47525379       0.94369513       0.52251703       0.78486633
N        1.63583967       0.96584653       4.40663181        2      -0.31021791      -0.52489314       1.27117447      -1.15103769      -0.78907335       0.05687780
N       -0.01177523       1.75252283       1.90648734        3      -2.26610723      -0.70705867      -0.35563022      -0.08529902       0.50656056       0.07193360
4
Lattice="3.128588 0.0 0.0 -1.5642939988088433 2.709436998432005 0.0 0.0 0.0 5.016955" Properties=species:S:1:pos:R:3:spacegroup_kinds:I:1:momenta:R:3:forces:R:3 spacegroup="P 1" unit_cell=conventional occupancy="_JSON {\"0\": {\"Al\": 1}, \"1\": {\"Al\": 1}, \"2\": {\"N\": 1}, \"3\": {\"N\": 1}}" energy=-29.372068405151367 free_energy=-29.372068405151367 stress="-0.005629527848213911 -0.018719621002674103 0.015849366784095764 -0.018719621002674103 -0.03227252885699272 0.017212217673659325 0.015849366784095764 0.017212217673659325 -0.007298284210264683" pbc="T T T"
Al       1.57072834       0.88046442       2.56331972        0      -0.00039212      -0.37629459      -0.57844058      -1.34386265      -0.44065624      -1.50707793
Al       0.05055068       1.86456079       4.94968572        1       0.52726972       0.77034216       1.04960151      -0.49128601      -1.36434126       1.82584715
N        1.58204808       0.88176660       4.44992393        2      -0.27832211      -1.02263466      -0.55459227       0.15003298       1.16376388      -0.85894918
N       -0.12661088       1.75915458       1.88869863        3      -0.24855551       0.62858710       0.08343128       1.68511593       0.64123344       0.54017991
4
Lattice="3.128588 0.0 0.0 -1.5642939988088433 2.709436998432005 0.0 0.0 0.0 5.016955" Properties=species:S:1:pos:R:3:spacegroup_kinds:I:1:momenta:R:3:forces:R:3 spacegroup="P 1" unit_cell=conventional occupancy="_JSON {\"0\": {\"Al\": 1}, \"1\": {\"Al\": 1}, \"2\": {\"N\": 1}, \"3\": {\"N\": 1}}" energy=-29.596923828125 free_energy=-29.596923828125 stress="0.015976557508111 -0.0045061055570840836 0.006018652115017176 -0.0045061055570840836 -0.025499356910586357 -0.004597145598381758 0.006018652115017176 -0.004597145598381758 -0.010014032945036888" pbc="T T T"
Al       1.53284807       0.86390068       2.51395075        0      -1.59464515      -0.16469650      -1.74991278      -0.27820659       0.89915776      -0.15420619
Al       0.06317837       1.83227866       5.00948379        1       0.38440031      -1.80666605       1.59449864      -0.58708429      -0.41271681       0.16725215
N        1.58572484       0.89623781       4.41422581        2       0.14193119       1.12964937      -0.09119171       0.25704044       0.38076824       0.00228052
N       -0.08152108       1.83862420       1.90381442        3       1.06831363       0.84171312       0.24660582       0.60825038      -0.86720896      -0.01532657
4
Lattice="3.128588 0.0 0.0 -1.5642939988088433 2.709436998432005 0.0 0.0 0.0 5.016955" Properties=species:S:1:pos:R:3:spacegroup_kinds:I:1:momenta:R:3:forces:R:3 spacegroup="P 1" unit_cell=conventional occupancy="_JSON {\"0\": {\"Al\": 1}, \"1\": {\"Al\": 1}, \"2\": {\"N\": 1}, \"3\": {\"N\": 1}}" energy=-29.462553024291992 free_energy=-29.462553024291992 stress="-0.0056970915757119656 0.010849477723240852 -0.003906600177288055 0.010849477723240852 -0.019133714959025383 -0.012703205458819866 -0.003906600177288055 -0.012703205458819866 -0.011871437542140484" pbc="T T T"
Al       1.48347329       0.88264395       2.44527930        0      -0.30454552       1.01149490      -0.60004481       0.88393140       0.95768404       1.70776939
Al       0.06164408       1.77681259       5.07306068        1      -0.86715196      -0.75617453       0.43048894      -0.30080652       0.71655339      -1.72280002
N        1.61717709       0.94947182       4.40498425        2       0.38645773       0.04830151       0.18623222      -0.07233892      -0.67486048       0.48910806
N       -0.01486930       1.85626149       1.92266703        3       0.78523967      -0.30362199      -0.01667640      -0.51078582      -0.99937713      -0.47407731
4
Lattice="3.128588 0.0 0.0 -1.5642939988088433 2.709436998432005 0.0 0.0 0.0 5.016955" Properties=species:S:1:pos:R:3:spacegroup_kinds:I:1:momenta:R:3:forces:R:3 spacegroup="P 1" unit_cell=conventional occupancy="_JSON {\"0\": {\"Al\": 1}, \"1\": {\"Al\": 1}, \"2\": {\"N\": 1}, \"3\": {\"N\": 1}}" energy=-29.518749237060547 free_energy=-29.518749237060547 stress="-0.023371156305074692 0.006539942231029272 -0.016097836196422577 0.006539942231029272 0.006697170902043581 -0.00048236039583571255 -0.016097836196422577 -0.00048236039583571255 -0.022160520777106285" pbc="T T T"
Al       1.50607638       0.94974319       2.46463698        0       1.15921385       0.62635222       1.50689914       1.24247503      -0.60704625       1.15697408
Al       0.01335470       1.75088038       5.06242870        1      -0.91112031       0.14825271      -0.88962580       0.51474547       0.69610769      -1.43088365
N        1.62637952       0.90489621       4.42127856        2      -0.14223530      -0.64065063       0.21498405      -0.71771574      -0.51824337      -0.07984914
N        0.02538012       1.82158366       1.88963026        3      -0.10585825      -0.13395434      -0.83225746      -1.03950477       0.42918208       0.35375857
4
Lattice="3.128588 0.0 0.0 -1.5642939988088433 2.709436998432005 0.0 0.0 0.0 5.016955" Properties=species:S:1:pos:R:3:spacegroup_kinds:I:1:momenta:R:3:forces:R:3 spacegroup="P 1" unit_cell=conventional occupancy="_JSON {\"0\": {\"Al\": 1}, \"1\": {\"Al\": 1}, \"2\": {\"N\": 1}, \"3\": {\"N\": 1}}" energy=-29.60500717163086 free_energy=-29.60500717163086 stress="0.0015956468414515257 -0.006785789970308542 -0.0030955455731600523 -0.006785789970308542 0.0017804870149120688 0.0017243544571101665 -0.0030955455731600523 0.0017243544571101665 -0.0231136716902256" pbc="T T T"
Al       1.56693926       0.93861031       2.54470910        0       1.44875330      -0.98943824       1.48437359      -0.01659240      -0.29131702      -1.20300639
Al      -0.01304572       1.78057345       4.99752451        1       0.01689715       1.11024976      -1.70729979       0.38438815       0.02358188       0.50760353
N        1.58384202       0.87104971       4.42155573        2      -0.67927381      -0.02704934      -0.19037157      -0.39236993       0.15177962      -0.39792413
N        0.00122212       1.81989277       1.85992051        3      -0.78637669      -0.09376221       0.41329772       0.02457430       0.11595561       1.09332681
4
Lattice="3.128588 0.0 0.0 -1.5642939988088433 2.709436998432005 0.0 0.0 0.0 5.016955" Properties=species:S:1:pos:R:3:spacegroup_kinds:I:1:momenta:R:3:forces:R:3 spacegroup="P 1" unit_cell=conventional occupancy="_JSON {\"0\": {\"Al\": 1}, \"1\": {\"Al\": 1}, \"2\": {\"N\": 1}, \"3\": {\"N\": 1}}" energy=-29.47020721435547 free_energy=-29.47020721435547 stress="0.0032030639704316854 -0.017801489681005478 0.011838370002806187 -0.017801489681005478 -0.0413491353392601 0.00735993729904294 0.011838370002806187 0.00735993729904294 -0.005160374101251364" pbc="T T T"
Al       1.62755628       0.89950078       2.54516752        0       1.04970714      -0.99981908      -0.80202922      -1.41065109       0.15933333      -0.91778916
Al      -0.00757062       1.81703572       4.95606283        1      -0.03757990       0.11959870      -0.16512815      -0.26242614      -0.84351504       1.41445875
N        1.52756237       0.85151204       4.42065485        2      -0.42752165       0.29023053      -0.07965725       0.31765836       0.98894548      -0.00115468
N       -0.06966664       1.84442110       1.93994534        3      -0.58460563       0.58998983       1.04681463       1.35541880      -0.30476397      -0.49551457
4
Lattice="3.128588 0.0 0.0 -1.5642939988088433 2.709436998432005 0.0 0.0 0.0 5.016955" Properties=species:S:1:pos:R:3:spacegroup_kinds:I:1:momenta:R:3:forces:R:3 spacegroup="P 1" unit_cell=conventional occupancy="_JSON {\"0\": {\"Al\": 1}, \"1\": {\"Al\": 1}, \"2\": {\"N\": 1}, \"3\": {\"N\": 1}}" energy=-29.452985763549805 free_energy=-29.452985763549805 stress="-0.013224954716861248 -0.02375013940036297 0.007911451160907745 -0.02375013940036297 -0.04793201759457588 -0.007333394605666399 0.007911451160907745 -0.007333394605666399 0.028633005917072296" pbc="T T T"
Al       1.63184036       0.85684026       2.46693548        0      -0.97589091      -0.55899575      -1.34838389      -1.39010072       1.11026263       1.17304039
Al      -0.02377746       1.82170280       4.98999598        1      -0.28018730       0.45883505       1.28013568      -0.08532403       0.08283410       0.34697258
N        1.52792699       0.92957752       4.44479004        2       0.11446399       0.97873256       0.08012530       0.22035986      -0.17398587       0.05599236
N       -0.04718865       1.83921502       2.00086011        3       1.14161416      -0.87857189      -0.01187702       1.25506449      -1.01911092      -1.57600522
4
Lattice="3.128588 0.0 0.0 -1.5642939988088433 2.709436998432005 0.0 0.0 0.0 5.016955" Properties=species:S:1:pos:R:3:spacegroup_kinds:I:1:momenta:R:3:forces:R:3 spacegroup="P 1" unit_cell=conventional occupancy="_JSON {\"0\": {\"Al\": 1}, \"1\": {\"Al\": 1}, \"2\": {\"N\": 1}, \"3\": {\"N\": 1}}" energy=-29.53631591796875 free_energy=-29.53631591796875 stress="-0.019857754930853844 0.01382896862924099 -0.00571736553683877 0.01382896862924099 -0.0031638164073228836 -0.0016709975898265839 -0.00571736553683877 -0.0016709975898265839 -0.006260556168854237" pbc="T T T"
Al       1.56291506       0.86348346       2.43836895        0      -1.44558789       0.38889154       0.34074994       0.67285979       0.11609238       1.45909595
Al      -0.01834140       1.83613134       5.05736571        1       0.19731533      -0.00921553       1.04742145       0.06595227       0.15003705      -1.19267428
N        1.54726692       0.95741151       4.47045639        2      -0.01024007       0.05685019       0.14844040       0.09761412      -0.44420996      -0.65174782
N        0.05576966       1.77068662       1.90062726        3       1.25851257      -0.43652624      -1.53661175      -0.83642608       0.17808066       0.38532600
4
Lattice="3.128588 0.0 0.0 -1.5642939988088433 2.709436998432005 0.0 0.0 0.0 5.016955" Properties=species:S:1:pos:R:3:spacegroup_kinds:I:1:momenta:R:3:forces:R:3 spacegroup="P 1" unit_cell=conventional occupancy="_JSON {\"0\": {\"Al\": 1}, \"1\": {\"Al\": 1}, \"2\": {\"N\": 1}, \"3\": {\"N\": 1}}" energy=-29.5310001373291 free_energy=-29.5310001373291 stress="-0.01829390972852707 0.015707524493336678 -0.01160766277462244 0.015707524493336678 0.0031480330508202314 0.004605693276971579 -0.01160766277462244 0.004605693276971579 -0.017258886247873306" pbc="T T T"
Al       1.54701075       0.87273545       2.46070915        0       0.71855752      -0.11584343       0.49435380       1.07476747      -0.28505859       1.06925356
Al      -0.01761627       1.84389394       5.05391121        1       0.19346343       0.17720491      -0.69190178       0.23187745      -0.07941984      -1.16825032
N        1.56395351       0.94331121       4.45961397        2       0.32487513      -0.12409509      -0.51346223      -0.11547255      -0.20503148      -0.72920263
N        0.06831346       1.75176763       1.87546334        3      -1.23689614       0.06273360       0.71101025      -1.19117248       0.56951022       0.82819915
4
Lattice="3.128588 0.0 0.0 -1.5642939988088433 2.709436998432005 0.0 0.0 0.0 5.016955" Properties=species:S:1:pos:R:3:spacegroup_kinds:I:1:momenta:R:3:forces:R:3 spacegroup="P 1" unit_cell=conventional occupancy="_JSON {\"0\": {\"Al\": 1}, \"1\": {\"Al\": 1}, \"2\": {\"N\": 1}, \"3\": {\"N\": 1}}" energy=-29.613210678100586 free_energy=-29.613210678100586 stress="-0.008381477557122707 -0.004276708699762821 0.0054928879253566265 -0.004276708699762821 -0.013936953619122505 0.0014803542289882898 0.0054928879253566265 0.0014803542289882898 0.012475469149649143" pbc="T T T"
Al       1.57767908       0.87033378       2.48321566        0       0.42145839      -0.10086026       0.75449444      -0.50598770       0.14215580       0.64867628
Al       0.00878679       1.84488740       5.00616578        1       0.94842477       0.04829639      -0.67234739      -0.28190958      -0.37569618       0.05942840
N        1.54733741       0.91884307       4.41695257        2      -0.50233545      -0.06173828      -0.86681657       0.26756674       0.16352446       0.34766740
N       -0.02491947       1.77881441       1.96659665        3      -0.86754776       0.11430218       0.78466961       0.52033049       0.07001585      -1.05577171
4
Lattice="3.128588 0.0 0.0 -1.5642939988088433 2.709436998432005 0.0 0.0 0.0 5.016955" Properties=species:S:1:pos:R:3:spacegroup_kinds:I:1:momenta:R:3:forces:R:3 spacegroup="P 1" unit_cell=conventional occupancy="_JSON {\"0\": {\"Al\": 1}, \"1\": {\"Al\": 1}, \"2\": {\"N\": 1}, \"3\": {\"N\": 1}}" energy=-29.557836532592773 free_energy=-29.557836532592773 stress="-0.016363775357604027 -0.002947403583675623 0.012903719209134579 -0.002947403583675623 -0.0062074242159724236 0.0015375306829810143 0.012903719209134579 0.0015375306829810143 -0.0027144623454660177" pbc="T T T"
Al       1.59068812       0.88023430       2.52274588        0      -0.41625604       0.17887067       0.33160799      -0.90884280      -0.14030644      -0.36868012
Al       0.01872290       1.83477375       4.97781989        1       0.14974033      -0.20763139      -0.17578558      -0.72829723      -0.10046260       0.72652841
N        1.52039172       0.92489995       4.39464375        2       0.19754293       0.25939970       0.47781844       0.72476006      -0.09605062       0.71574372
N       -0.04216865       1.77342026       1.96745700        3       0.06897274      -0.23063894      -0.63364076       0.91238034       0.33681959      -1.07359207
4
Lattice="3.128588 0.0 0.0 -1.5642939988088433 2.709436998432005 0.0 0.0 0.0 5.016955" Properties=species:S:1:pos:R:3:spacegroup_kinds:I:1:momenta:R:3:forces:R:3 spacegroup="P 1" unit_cell=conventional occupancy="_JSON {\"0\": {\"Al\": 1}, \"1\": {\"Al\": 1}, \"2\": {\"N\": 1}, \"3\": {\"N\": 1}}" energy=-29.621110916137695 free_energy=-29.621110916137695 stress="-0.02150091901421547 0.005276493262499571 -0.0032675359398126602 0.005276493262499571 0.010657597333192825 0.0019249593606218696 -0.0032675359398126602 0.0019249593606218696 -0.0015898009296506643" pbc="T T T"
Al       1.54767648       0.89587763       2.50832859        0      -0.85809973       0.46896503      -1.00003139       0.39160699      -0.39029345      -0.15032014
Al       0.00665802       1.82067512       5.00342494        1      -0.72966928      -0.11082635       1.46536851      -0.00950398       0.22697240       0.34862766
N        1.57185926       0.94293300       4.45440724        2       0.62349824      -0.37686541       0.64593173      -0.01969417      -0.43335503      -0.83889925
N        0.01256033       1.75229421       1.88600535        3       0.96427074       0.01872679      -1.11126876      -0.36240885       0.59667611       0.64059174
4
Lattice="3.128588 0.0 0.0 -1.5642939988088433 2.709436998432005 0.0 0.0 0.0 5.016955" Properties=species:S:1:pos:R:3:spacegroup_kinds:I:1:momenta:R:3:forces:R:3 spacegroup="P 1" unit_cell=conventional occupancy="_JSON {\"0\": {\"Al\": 1}, \"1\": {\"Al\": 1}, \"2\": {\"N\": 1}, \"3\": {\"N\": 1}}" energy=-29.520856857299805 free_energy=-29.520856857299805 stress="-0.014047350734472275 0.01182093657553196 -0.014255560003221035 0.01182093657553196 -0.005614603869616985 0.009361548349261284 -0.014255560003221035 0.009361548349261284 -0.01957118511199951" pbc="T T T"
Al       1.52999428       0.91403917       2.46474569        0       0.09545109      -0.23101255      -1.18071384       1.21875286      -0.63577199       0.99290156
Al      -0.00890655       1.82180731       5.05208968        1       0.31216847      -0.10747437       0.45537769       0.39472732      -0.38378653      -1.12710404
N        1.59437709       0.88605552       4.45928986        2      -0.04798970      -0.53350343      -0.20523325      -0.40810519       0.35579079      -0.79021376
N        0.05384448       1.77207220       1.87145001        3      -0.35962988       0.87199041       0.93056951      -1.20537519       0.66376758       0.92441648
4
Lattice="3.128588 0.0 0.0 -1.5642939988088433 2.709436998432005 0.0 0.0 0.0 5.016955" Properties=species:S:1:pos:R:3:spacegroup_kinds:I:1:momenta:R:3:forces:R:3 spacegroup="P 1" unit_cell=conventional occupancy="_JSON {\"0\": {\"Al\": 1}, \"1\": {\"Al\": 1}, \"2\": {\"N\": 1}, \"3\": {\"N\": 1}}" energy=-29.618785858154297 free_energy=-29.618785858154297 stress="0.010117613710463047 -0.001822026213631034 -0.0018729694420471787 -0.001822026213631034 -0.024783136323094368 0.004591064527630806 -0.0018729694420471787 0.004591064527630806 2.6399833586765453e-05" pbc="T T T"
Al       1.53818033       0.90928018       2.47247629        0       0.23228550      -0.27447264       1.41733363       0.21201137       0.18702020       0.85531032
Al       0.01802688       1.81430743       5.03506519        1       0.60360811      -0.42930249      -1.11140838       0.03760038      -0.69444174      -0.55142999
N        1.59518013       0.85128044       4.42414645        2       0.09084608       0.02420691      -0.77345475      -0.19470140       0.84070539       0.01228291
N       -0.01452984       1.83034437       1.92467360        3      -0.92673970       0.67956824       0.46752964      -0.05491027      -0.33328402      -0.31616315
4
Lattice="3.128588 0.0 0.0 -1.5642939988088433 2.709436998432005 0.0 0.0 0.0 5.016955" Properties=species:S:1:pos:R:3:spacegroup_kinds:I:1:momenta:R:3:forces:R:3 spacegroup="P 1" unit_cell=conventional occupancy="_JSON {\"0\": {\"Al\": 1}, \"1\": {\"Al\": 1}, \"2\": {\"N\": 1}, \"3\": {\"N\": 1}}" energy=-29.623743057250977 free_energy=-29.623743057250977 stress="0.004300600849092007 -0.008672612719237804 0.00288186501711607 -0.008672612719237804 -0.006943711079657078 -0.004434541333466768 0.00288186501711607 -0.004434541333466768 -0.014839212410151958" pbc="T T T"
Al       1.54321203       0.89379623       2.53645985        0      -0.00705465      -0.41529161       0.79445009      -0.25250003       0.39303070      -0.87834620
Al       0.03580897       1.79893951       4.98957806        1       0.09337963      -0.29525151      -0.61191970      -0.16601244       0.14058213       0.62745345
N        1.59619754       0.90645094       4.40111848        2      -0.02189849       1.09350705       0.27120830      -0.08899590      -0.09593841       0.34911051
N       -0.05911258       1.83464209       1.91219263        3      -0.06442651      -0.38296392      -0.45373859       0.50750840      -0.43767437      -0.09821820
