4
Lattice="3.128588 0.0 0.0 -1.5642939988088433 2.709436998432005 0.0 0.0 0.0 5.016955" Properties=species:S:1:pos:R:3:spacegroup_kinds:I:1:momenta:R:3:forces:R:3 spacegroup="P 1" unit_cell=conventional occupancy="_JSON {\"0\": {\"Al\": 1}, \"1\": {\"Al\": 1}, \"2\": {\"N\": 1}, \"3\": {\"N\": 1}}" energy=-29.62373924255371 free_energy=-29.62373924255371 stress="0.004300403408706188 -0.008672673255205154 0.0028819211293011904 -0.008672673255205154 -0.006943600717931986 -0.004434437956660986 0.0028819211293011904 -0.004434437956660986 -0.014839086681604385" pbc="T T T"
Al       1.54321204       0.89379621       2.53645980        0      -0.00705398      -0.41529095       0.79445019      -0.25250134       0.39302984      -0.87834287
Al       0.03580898       1.79893954       4.98957809        1       0.09337904      -0.29525200      -0.61191897      -0.16600800       0.14057976       0.62745059
N        1.59619757       0.90645098       4.40111851        2      -0.02189816       1.09350724       0.27120725      -0.08900170      -0.09593660       0.34911355
N       -0.05911262       1.83464205       1.91219263        3      -0.06442695      -0.38296429      -0.45373855       0.50751096      -0.43767282      -0.09822172
