4
Lattice="3.128588 0.0 0.0 -1.5642939988088433 2.709436998432005 0.0 0.0 0.0 5.016955" Properties=species:S:1:pos:R:3:spacegroup_kinds:I:1:momenta:R:3:forces:R:3 spacegroup="P 1" unit_cell=conventional occupancy="_JSON {\"0\": {\"Al\": 1}, \"1\": {\"Al\": 1}, \"2\": {\"N\": 1}, \"3\": {\"N\": 1}}" energy=-29.673715591430664 free_energy=-29.673715591430664 stress="-0.0022254667710512877 -1.3793820698992931e-06 1.9140287577101844e-08 -1.3793820698992931e-06 -0.0022273885551840067 -5.6044935803356566e-08 1.9140287577101844e-08 -5.6044935803356566e-08 -0.005453661549836397" pbc="T T T"
Al       1.56429556       0.90314476       2.50490041        0       0.68448204       0.53670047       0.91071479      -0.00003478       0.00001988       0.00553233
Al      -0.00000156       1.80629224       5.01337791        1       0.31075784       0.39520501      -1.87833745       0.00003420      -0.00001816       0.00552410
N        1.56429556       0.90314476       4.41849749        2      -0.23293981      -0.79739853      -0.40745139      -0.00003602       0.00001936      -0.00553079
N       -0.00000156       1.80629224       1.91001999        3      -0.76230006      -0.13450696       1.37507406       0.00003649      -0.00002103      -0.00552557
4
Lattice="3.128588 0.0 0.0 -1.5642939988088433 2.709436998432005 0.0 0.0 0.0 5.016955" Properties=species:S:1:pos:R:3:spacegroup_kinds:I:1:momenta:R:3:forces:R:3 spacegroup="P 1" unit_cell=conventional occupancy="_JSON {\"0\": {\"Al\": 1}, \"1\": {\"Al\": 1}, \"2\": {\"N\": 1}, \"3\": {\"N\": 1}}" energy=-29.43359375 free_energy=-29.43359375 stress="-0.01377345621585846 -0.016446303576231003 0.012948821298778057 -0.016446303576231003 -0.02396872453391552 0.009969722479581833 0.012948821298778057 0.009969722479581833 -0.012059403583407402" pbc="T T T"
Al       1.60246141       0.92231284       2.54150849        0       0.57498199      -0.13491991       1.02882493      -1.31301272      -0.49033386      -0.87831318
Al       0.00328788       1.81111139       4.94718774        1      -0.44725814       0.00118045      -1.07867333      -0.30154288      -0.59423250       1.18011808
N        1.53678588       0.85870780       4.38099594        2       0.14052045      -0.46066715       0.20203865       0.28490886       0.67984593       1.25553668
N       -0.05228245       1.80432671       2.00436659        3      -0.26824434       0.59440661      -0.15219027       1.32964671       0.40472069      -1.55734146
4
Lattice="3.128588 0.0 0.0 -1.5642939988088433 2.709436998432005 0.0 0.0 0.0 5.016955" Properties=species:S:1:pos:R:3:spacegroup_kinds:I:1:momenta:R:3:forces:R:3 spacegroup="P 1" unit_cell=conventional occupancy="_JSON {\"0\": {\"Al\": 1}, \"1\": {\"Al\": 1}, \"2\": {\"N\": 1}, \"3\": {\"N\": 1}}" energy=-29.567256927490234 free_energy=-29.567256927490234 stress="0.01291582826524973 0.0017024105181917548 0.003579364623874426 0.0017024105181917548 -0.025857025757431984 -0.005369132850319147 0.003579364623874426 -0.005369132850319147 -0.011435332708060741" pbc="T T T"
Al       1.59598186       0.90138485       2.55101264        0      -0.85003967      -0.64755188      -0.41676333      -0.33522749       0.74370372      -1.26921332
Al      -0.01311800       1.79082858       4.96769657        1      -0.24557048      -0.74327770       1.65595809      -0.18280156      -0.17026819       1.21499646
N        1.52960410       0.86779352       4.41996340        2       0.16413089       0.60763573       0.63654554       0.31887600       0.39321426      -0.09056920
N       -0.00060096       1.87475189       1.90756522        3       0.93147921       0.78319389      -1.87574029       0.19915310      -0.96664989       0.14478621
4
Lattice="3.128588 0.0 0.0 -1.5642939988088433 2.709436998432005 0.0 0.0 0.0 5.016955" Properties=species:S:1:pos:R:3:spacegroup_kinds:I:1:momenta:R:3:forces:R:3 spacegroup="P 1" unit_cell=conventional occupancy="_JSON {\"0\": {\"Al\": 1}, \"1\": {\"Al\": 1}, \"2\": {\"N\": 1}, \"3\": {\"N\": 1}}" energy=-29.406274795532227 free_energy=-29.406274795532227 stress="0.010688720270991325 0.01649806648492813 -0.008164024911820889 0.01649806648492813 -0.009423199109733105 -0.015553953126072884 -0.008164024911820889 -0.015553953126072884 -0.061254117637872696" pbc="T T T"
Al       1.53423929       0.87298460       2.51007452        0      -1.60925373       0.09619207      -1.03262257       0.74608612       1.00298691       0.03482414
Al      -0.01349004       1.78470222       5.05709164        1       0.21561257      -0.04339767       1.72443238       0.02271274       0.40732846      -1.66437006
N        1.55208974       0.92225132       4.42203508        2       0.38659361       0.63935792      -0.93002890       0.04495747      -0.39009658      -0.56986088
N        0.09667395       1.88681818       1.81230440        3       1.00704752      -0.69215232       0.23821908      -0.81375635      -1.02021909       2.19940662
4
Lattice="3.128588 0.0 0.0 -1.5642939988088433 2.709436998432005 0.0 0.0 0.0 5.016955" Properties=species:S:1:pos:R:3:spacegroup_kinds:I:1:momenta:R:3:forces:R:3 spacegroup="P 1" unit_cell=conventional occupancy="_JSON {\"0\": {\"Al\": 1}, \"1\": {\"Al\": 1}, \"2\": {\"N\": 1}, \"3\": {\"N\": 1}}" energy=-29.201904296875 free_energy=-29.201904296875 stress="-0.0264409352093935 0.03815555199980736 -0.03138254955410957 0.03815555199980736 -0.004877307452261448 0.0015438450500369072 -0.03138254955410957 0.0015438450500369072 -0.051819682121276855" pbc="T T T"
Al       1.49382403       0.87740192       2.48150489        0      -0.08661669      -0.02748776       0.25595509       2.48428202      -0.46186799       1.22610784
Al      -0.02076736       1.79337853       5.08843295        1       0.00716741       0.60209060      -1.27068230       0.64723164       0.57433355      -2.36003613
N        1.60157220       0.96971685       4.33361321        2       0.49437259       0.53651047      -0.17473344      -0.53882384      -0.70145285       1.74608934
N        0.13924905       1.81421452       1.89535164        3      -0.41492334      -1.11111330       1.18946066      -2.59268951       0.58898699      -0.61216187
4
Lattice="3.128588 0.0 0.0 -1.5642939988088433 2.709436998432005 0.0 0.0 0.0 5.016955" Properties=species:S:1:pos:R:3:spacegroup_kinds:I:1:momenta:R:3:forces:R:3 spacegroup="P 1" unit_cell=conventional occupancy="_JSON {\"0\": {\"Al\": 1}, \"1\": {\"Al\": 1}, \"2\": {\"N\": 1}, \"3\": {\"N\": 1}}" energy=-29.574626922607422 free_energy=-29.574626922607422 stress="-0.023618018254637718 -0.01432152558118105 -0.011128024198114872 -0.01432152558118105 0.015030134469270706 -0.0028547383844852448 -0.011128024198114872 -0.0028547383844852448 -0.01444039773195982" pbc="T T T"
Al       1.53421959       0.88369268       2.53780580        0       1.55944031       0.36820834       1.55971014       0.29264501      -0.24000645      -0.91367507
Al      -0.00048006       1.82107765       4.98837345        1       1.01688542       0.86374298      -2.47525428       0.94369328       0.52251661       0.78486305
N        1.63583964       0.96584651       4.40663185        2      -0.31021872      -0.52489281       1.27117358      -1.15103626      -0.78907073       0.05688031
N       -0.01177518       1.75252280       1.90648729        3      -2.26610700      -0.70705855      -0.35562947      -0.08530193       0.50656080       0.07193165
4
Lattice="3.128588 0.0 0.0 -1.5642939988088433 2.709436998432005 0.0 0.0 0.0 5.016955" Properties=species:S:1:pos:R:3:spacegroup_kinds:I:1:momenta:R:3:forces:R:3 spacegroup="P 1" unit_cell=conventional occupancy="_JSON {\"0\": {\"Al\": 1}, \"1\": {\"Al\": 1}, \"2\": {\"N\": 1}, \"3\": {\"N\": 1}}" energy=-29.3720703125 free_energy=-29.3720703125 stress="-0.005629746243357658 -0.018719645217061043 0.015849407762289047 -0.018719645217061043 -0.0322728231549263 0.017212238162755966 0.015849407762289047 0.017212238162755966 -0.007298245094716549" pbc="T T T"
Al       1.57072834       0.88046439       2.56331975        0      -0.00039159      -0.37629490      -0.57844052      -1.34386384      -0.44065821      -1.50707626
Al       0.05055070       1.86456082       4.94968571        1       0.52726983       0.77034155       1.04960150      -0.49128708      -1.36434162       1.82584727
N        1.58204802       0.88176661       4.44992390        2      -0.27832208      -1.02263390      -0.55459295       0.15003398       1.16376460      -0.85894895
N       -0.12661085       1.75915456       1.88869866        3      -0.24855611       0.62858722       0.08343194       1.68511665       0.64123529       0.54017776
4
Lattice="3.128588 0.0 0.0 -1.5642939988088433 2.709436998432005 0.0 0.0 0.0 5.016955" Properties=species:S:1:pos:R:3:spacegroup_kinds:I:1:momenta:R:3:forces:R:3 spacegroup="P 1" unit_cell=conventional occupancy="_JSON {\"0\": {\"Al\": 1}, \"1\": {\"Al\": 1}, \"2\": {\"N\": 1}, \"3\": {\"N\": 1}}" energy=-29.596923828125 free_energy=-29.596923828125 stress="0.015976306051015854 -0.004506127443164587 0.0060186441987752914 -0.004506127443164587 -0.025499537587165833 -0.004597111605107784 0.0060186441987752914 -0.004597111605107784 -0.010014012455940247" pbc="T T T"
Al       1.53284810       0.86390064       2.51395075        0      -1.59464460      -0.16469665      -1.74991361      -0.27820793       0.89915782      -0.15420523
Al       0.06317840       1.83227867       5.00948380        1       0.38440010      -1.80666596       1.59449913      -0.58708471      -0.41271812       0.16725214
N        1.58572479       0.89623786       4.41422576        2       0.14193143       1.12964930      -0.09119142       0.25704053       0.38076848       0.00228028
N       -0.08152111       1.83862421       1.90381446        3       1.06831306       0.84171330       0.24660589       0.60825217      -0.86720824      -0.01532707
4
Lattice="3.128588 0.0 0.0 -1.5642939988088433 2.709436998432005 0.0 0.0 0.0 5.016955" Properties=species:S:1:pos:R:3:spacegroup_kinds:I:1:momenta:R:3:forces:R:3 spacegroup="P 1" unit_cell=conventional occupancy="_JSON {\"0\": {\"Al\": 1}, \"1\": {\"Al\": 1}, \"2\": {\"N\": 1}, \"3\": {\"N\": 1}}" energy=-29.462553024291992 free_energy=-29.462553024291992 stress="-0.005697208922356367 0.01084956806153059 -0.003906623926013708 0.01084956806153059 -0.019134042784571648 -0.012703191488981247 -0.003906623926013708 -0.012703191488981247 -0.011871515773236752" pbc="T T T"
Al       1.48347333       0.88264393       2.44527928        0      -0.30454551       1.01149540      -0.60004518       0.88393188       0.95768309       1.70777106
Al       0.06164410       1.77681261       5.07306070        1      -0.86715217      -0.75617406       0.43048863      -0.30080622       0.71655333      -1.72280049
N        1.61717707       0.94947184       4.40498429        2       0.38645800       0.04830101       0.18623328      -0.07233986      -0.67486084       0.48910755
N       -0.01486935       1.85626147       1.92266702        3       0.78523966      -0.30362230      -0.01667675      -0.51078594      -0.99937522      -0.47407758
4
Lattice="3.128588 0.0 0.0 -1.5642939988088433 2.709436998432005 0.0 0.0 0.0 5.016955" Properties=species:S:1:pos:R:3:spacegroup_kinds:I:1:momenta:R:3:forces:R:3 spacegroup="P 1" unit_cell=conventional occupancy="_JSON {\"0\": {\"Al\": 1}, \"1\": {\"Al\": 1}, \"2\": {\"N\": 1}, \"3\": {\"N\": 1}}" energy=-29.51875114440918 free_energy=-29.51875114440918 stress="-0.023370763286948204 0.006540023256093264 -0.016098205000162125 0.006540023256093264 0.006697466596961021 -0.0004823835042770952 -0.016098205000162125 -0.0004823835042770952 -0.02216142974793911" pbc="T T T"
Al       1.50607638       0.94974320       2.46463695        0       1.15921261       0.62635223       1.50689943       1.24247575      -0.60704768       1.15697551
Al       0.01335471       1.75088042       5.06242871        1      -0.91112065       0.14825223      -0.88962663       0.51474386       0.69610608      -1.43089056
N        1.62637953       0.90489620       4.42127858        2      -0.14223477      -0.64065031       0.21498378      -0.71771550      -0.51824188      -0.07984813
N        0.02538013       1.82158361       1.88963029        3      -0.10585722      -0.13395413      -0.83225666      -1.03950405       0.42918342       0.35376343
4
Lattice="3.128588 0.0 0.0 -1.5642939988088433 2.709436998432005 0.0 0.0 0.0 5.016955" Properties=species:S:1:pos:R:3:spacegroup_kinds:I:1:momenta:R:3:forces:R:3 spacegroup="P 1" unit_cell=conventional occupancy="_JSON {\"0\": {\"Al\": 1}, \"1\": {\"Al\": 1}, \"2\": {\"N\": 1}, \"3\": {\"N\": 1}}" energy=-29.60500717163086 free_energy=-29.60500717163086 stress="0.0015957505675032735 -0.006785922683775425 -0.0030955232214182615 -0.006785922683775425 0.00178060051985085 0.001724331988953054 -0.0030955232214182615 0.001724331988953054 -0.023113643750548363" pbc="T T T"
Al       1.56693925       0.93861029       2.54470910        0       1.44875361      -0.98943861       1.48437404      -0.01659293      -0.29131535      -1.20300543
Al      -0.01304571       1.78057347       4.99752450        1       0.01689732       1.11024945      -1.70729955       0.38438854       0.02358292       0.50760233
N        1.58384203       0.87104970       4.42155575        2      -0.67927399      -0.02704940      -0.19037164      -0.39237076       0.15177825      -0.39792383
N        0.00122214       1.81989279       1.85992052        3      -0.78637692      -0.09376143       0.41329709       0.02457516       0.11595419       1.09332705
4
Lattice="3.128588 0.0 0.0 -1.5642939988088433 2.709436998432005 0.0 0.0 0.0 5.016955" Properties=species:S:1:pos:R:3:spacegroup_kinds:I:1:momenta:R:3:forces:R:3 spacegroup="P 1" unit_cell=conventional occupancy="_JSON {\"0\": {\"Al\": 1}, \"1\": {\"Al\": 1}, \"2\": {\"N\": 1}, \"3\": {\"N\": 1}}" energy=-29.470205307006836 free_energy=-29.470205307006836 stress="0.00320315919816494 -0.01780151017010212 0.011838303878903389 -0.01780151017010212 -0.04134895280003548 0.00735996849834919 0.011838303878903389 0.00735996849834919 -0.005160290282219648" pbc="T T T"
Al       1.62755629       0.89950077       2.54516752        0       1.04970788      -0.99981858      -0.80202970      -1.41065192       0.15933281      -0.91778672
Al      -0.00757061       1.81703571       4.95606285        1      -0.03757967       0.11959809      -0.16512719      -0.26242423      -0.84351546       1.41445518
N        1.52756237       0.85151205       4.42065485        2      -0.42752185       0.29023070      -0.07965768       0.31765589       0.98894560      -0.00115273
N       -0.06966667       1.84442115       1.93994532        3      -0.58460635       0.58998980       1.04681457       1.35542035      -0.30476308      -0.49551567
4
Lattice="3.128588 0.0 0.0 -1.5642939988088433 2.709436998432005 0.0 0.0 0.0 5.016955" Properties=species:S:1:pos:R:3:spacegroup_kinds:I:1:momenta:R:3:forces:R:3 spacegroup="P 1" unit_cell=conventional occupancy="_JSON {\"0\": {\"Al\": 1}, \"1\": {\"Al\": 1}, \"2\": {\"N\": 1}, \"3\": {\"N\": 1}}" energy=-29.452987670898438 free_energy=-29.452987670898438 stress="-0.013224935159087181 -0.02375003695487976 0.007911517284810543 -0.02375003695487976 -0.04793170467019081 -0.007333225104957819 0.007911517284810543 -0.007333225104957819 0.02863297611474991" pbc="T T T"
Al       1.63184042       0.85684029       2.46693548        0      -0.97589093      -0.55899546      -1.34838417      -1.39010680       1.11026096       1.17303562
Al      -0.02377745       1.82170278       4.98999600        1      -0.28018745       0.45883509       1.28013527      -0.08532342       0.08283253       0.34697041
N        1.52792699       0.92957752       4.44479004        2       0.11446414       0.97873233       0.08012548       0.22036026      -0.17398712       0.05598982
N       -0.04718874       1.83921503       2.00086009        3       1.14161418      -0.87857196      -0.01187654       1.25507033      -1.01910651      -1.57599545
4
Lattice="3.128588 0.0 0.0 -1.5642939988088433 2.709436998432005 0.0 0.0 0.0 5.016955" Properties=species:S:1:pos:R:3:spacegroup_kinds:I:1:momenta:R:3:forces:R:3 spacegroup="P 1" unit_cell=conventional occupancy="_JSON {\"0\": {\"Al\": 1}, \"1\": {\"Al\": 1}, \"2\": {\"N\": 1}, \"3\": {\"N\": 1}}" energy=-29.536317825317383 free_energy=-29.536317825317383 stress="-0.019857563078403473 0.013828929513692856 -0.005717364139854908 0.013828929513692856 -0.0031642732210457325 -0.0016709583578631282 -0.005717364139854908 -0.0016709583578631282 -0.006260499823838472" pbc="T T T"
Al       1.56291506       0.86348349       2.43836893        0      -1.44558881       0.38889158       0.34074932       0.67285907       0.11609408       1.45909691
Al      -0.01834141       1.83613134       5.05736571        1       0.19731502      -0.00921509       1.04742129       0.06595318       0.15003492      -1.19267368
N        1.54726696       0.95741148       4.47045639        2      -0.01023971       0.05684980       0.14844029       0.09761312      -0.44420856      -0.65174812
N        0.05576966       1.77068664       1.90062731        3       1.25851349      -0.43652628      -1.53661086      -0.83642524       0.17807947       0.38532454
4
Lattice="3.128588 0.0 0.0 -1.5642939988088433 2.709436998432005 0.0 0.0 0.0 5.016955" Properties=species:S:1:pos:R:3:spacegroup_kinds:I:1:momenta:R:3:forces:R:3 spacegroup="P 1" unit_cell=conventional occupancy="_JSON {\"0\": {\"Al\": 1}, \"1\": {\"Al\": 1}, \"2\": {\"N\": 1}, \"3\": {\"N\": 1}}" energy=-29.5310001373291 free_energy=-29.5310001373291 stress="-0.018294041976332664 0.01570742204785347 -0.011607659049332142 0.01570742204785347 0.003147972747683525 0.004605644848197699 -0.011607659049332142 0.004605644848197699 -0.017258919775485992" pbc="T T T"
Al       1.54701072       0.87273547       2.46070911        0       0.71855723      -0.11584366       0.49435382       1.07476652      -0.28505799       1.06925380
Al      -0.01761627       1.84389394       5.05391122        1       0.19346402       0.17720492      -0.69190182       0.23187658      -0.07941878      -1.16825008
N        1.56395353       0.94331117       4.45961400        2       0.32487463      -0.12409488      -0.51346119      -0.11547086      -0.20503323      -0.72920328
N        0.06831351       1.75176766       1.87546340        3      -1.23689593       0.06273363       0.71100934      -1.19117200       0.56951010       0.82819951
4
Lattice="3.128588 0.0 0.0 -1.5642939988088433 2.709436998432005 0.0 0.0 0.0 5.016955" Properties=species:S:1:pos:R:3:spacegroup_kinds:I:1:momenta:R:3:forces:R:3 spacegroup="P 1" unit_cell=conventional occupancy="_JSON {\"0\": {\"Al\": 1}, \"1\": {\"Al\": 1}, \"2\": {\"N\": 1}, \"3\": {\"N\": 1}}" energy=-29.61321258544922 free_energy=-29.61321258544922 stress="-0.008381759747862816 -0.004276656545698643 0.005492869298905134 -0.004276656545698643 -0.013937069103121758 0.0014804138336330652 0.005492869298905134 0.0014804138336330652 0.012475406751036644" pbc="T T T"
Al       1.57767906       0.87033378       2.48321565        0       0.42145916      -0.10086061       0.75449547      -0.50598842       0.14215347       0.64867622
Al       0.00878682       1.84488741       5.00616578        1       0.94842540       0.04829622      -0.67234742      -0.28191033      -0.37569624       0.05942731
N        1.54733739       0.91884308       4.41695262        2      -0.50233591      -0.06173760      -0.86681692       0.26756740       0.16352400       0.34766781
N       -0.02491944       1.77881442       1.96659663        3      -0.86754870       0.11430200       0.78466895       0.52033150       0.07001866      -1.05577111
4
Lattice="3.128588 0.0 0.0 -1.5642939988088433 2.709436998432005 0.0 0.0 0.0 5.016955" Properties=species:S:1:pos:R:3:spacegroup_kinds:I:1:momenta:R:3:forces:R:3 spacegroup="P 1" unit_cell=conventional occupancy="_JSON {\"0\": {\"Al\": 1}, \"1\": {\"Al\": 1}, \"2\": {\"N\": 1}, \"3\": {\"N\": 1}}" energy=-29.557838439941406 free_energy=-29.557838439941406 stress="-0.016363538801670074 -0.0029476068448275328 0.012903844937682152 -0.0029476068448275328 -0.006207696162164211 0.0015375441871583462 0.012903844937682152 0.0015375441871583462 -0.0027151352260261774" pbc="T T T"
Al       1.59068814       0.88023428       2.52274590        0      -0.41625572       0.17887021       0.33160857      -0.90884447      -0.14031276      -0.36868232
Al       0.01872293       1.83477377       4.97781990        1       0.14973980      -0.20763050      -0.17578533      -0.72829723      -0.10046154       0.72653323
N        1.52039170       0.92489998       4.39464373        2       0.19754349       0.25939927       0.47781714       0.72475880      -0.09605076       0.71573728
N       -0.04216870       1.77342027       1.96745696        3       0.06897239      -0.23063899      -0.63364034       0.91238278       0.33682501      -1.07358778
4
Lattice="3.128588 0.0 0.0 -1.5642939988088433 2.709436998432005 0.0 0.0 0.0 5.016955" Properties=species:S:1:pos:R:3:spacegroup_kinds:I:1:momenta:R:3:forces:R:3 spacegroup="P 1" unit_cell=conventional occupancy="_JSON {\"0\": {\"Al\": 1}, \"1\": {\"Al\": 1}, \"2\": {\"N\": 1}, \"3\": {\"N\": 1}}" energy=-29.621110916137695 free_energy=-29.621110916137695 stress="-0.021500663831830025 0.005276271142065525 -0.003267537336796522 0.005276271142065525 0.01065782830119133 0.0019249138422310352 -0.003267537336796522 0.0019249138422310352 -0.001589957857504487" pbc="T T T"
Al       1.54767649       0.89587760       2.50832860        0      -0.85810045       0.46896488      -1.00003173       0.39160535      -0.39029142      -0.15032233
Al       0.00665803       1.82067517       5.00342495        1      -0.72966947      -0.11082558       1.46536813      -0.00950192       0.22697204       0.34862921
N        1.57185929       0.94293299       4.45440719        2       0.62349837      -0.37686585       0.64593240      -0.01969641      -0.43335414      -0.83889961
N        0.01256029       1.75229421       1.88600535        3       0.96427151       0.01872654      -1.11126880      -0.36240703       0.59667337       0.64059293
4
Lattice="3.128588 0.0 0.0 -1.5642939988088433 2.709436998432005 0.0 0.0 0.0 5.016955" Properties=species:S:1:pos:R:3:spacegroup_kinds:I:1:momenta:R:3:forces:R:3 spacegroup="P 1" unit_cell=conventional occupancy="_JSON {\"0\": {\"Al\": 1}, \"1\": {\"Al\": 1}, \"2\": {\"N\": 1}, \"3\": {\"N\": 1}}" energy=-29.520856857299805 free_energy=-29.520856857299805 stress="-0.014047329314053059 0.011820953339338303 -0.014255576767027378 0.011820953339338303 -0.005614963825792074 0.009361556731164455 -0.014255576767027378 0.009361556731164455 -0.019570939242839813" pbc="T T T"
Al       1.52999426       0.91403914       2.46474569        0       0.09545062      -0.23101225      -1.18071452       1.21875668      -0.63577211       0.99290168
Al      -0.00890653       1.82180737       5.05208968        1       0.31216885      -0.10747442       0.45537720       0.39472470      -0.38378504      -1.12710440
N        1.59437708       0.88605552       4.45928988        2      -0.04799001      -0.53350328      -0.20523230      -0.40810257       0.35579032      -0.79021502
N        0.05384451       1.77207216       1.87145001        3      -0.35962951       0.87198990       0.93056968      -1.20537889       0.66376686       0.92441756
4
Lattice="3.128588 0.0 0.0 -1.5642939988088433 2.709436998432005 0.0 0.0 0.0 5.016955" Properties=species:S:1:pos:R:3:spacegroup_kinds:I:1:momenta:R:3:forces:R:3 spacegroup="P 1" unit_cell=conventional occupancy="_JSON {\"0\": {\"Al\": 1}, \"1\": {\"Al\": 1}, \"2\": {\"N\": 1}, \"3\": {\"N\": 1}}" energy=-29.61878776550293 free_energy=-29.61878776550293 stress="0.010117549449205399 -0.0018219108460471034 -0.0018730213632807136 -0.0018219108460471034 -0.024783212691545486 0.004591100849211216 -0.0018730213632807136 0.004591100849211216 2.6458699721843004e-05" pbc="T T T"
Al       1.53818031       0.90928015       2.47247627        0       0.23228613      -0.27447296       1.41733331       0.21200950       0.18702172       0.85530764
Al       0.01802691       1.81430747       5.03506517        1       0.60360780      -0.42930302      -1.11140812       0.03760231      -0.69444215      -0.55142528
N        1.59518012       0.85128046       4.42414652        2       0.09084638       0.02420730      -0.77345448      -0.19470319       0.84070671       0.01228085
N       -0.01452981       1.83034434       1.92467360        3      -0.92674036       0.67956869       0.46752933      -0.05490857      -0.33328599      -0.31616396
4
Lattice="3.128588 0.0 0.0 -1.5642939988088433 2.709436998432005 0.0 0.0 0.0 5.016955" Properties=species:S:1:pos:R:3:spacegroup_kinds:I:1:momenta:R:3:forces:R:3 spacegroup="P 1" unit_cell=conventional occupancy="_JSON {\"0\": {\"Al\": 1}, \"1\": {\"Al\": 1}, \"2\": {\"N\": 1}, \"3\": {\"N\": 1}}" energy=-29.62373924255371 free_energy=-29.62373924255371 stress="0.004300403408706188 -0.008672673255205154 0.0028819211293011904 -0.008672673255205154 -0.006943600717931986 -0.004434437956660986 0.0028819211293011904 -0.004434437956660986 -0.014839086681604385" pbc="T T T"
Al       1.54321204       0.89379621       2.53645980        0      -0.00705398      -0.41529095       0.79445019      -0.25250134       0.39302984      -0.87834287
Al       0.03580898       1.79893954       4.98957809        1       0.09337904      -0.29525200      -0.61191897      -0.16600800       0.14057976       0.62745059
N        1.59619757       0.90645098       4.40111851        2      -0.02189816       1.09350724       0.27120725      -0.08900170      -0.09593660       0.34911355
N       -0.05911262       1.83464205       1.91219263        3      -0.06442695      -0.38296429      -0.45373855       0.50751096      -0.43767282      -0.09822172
