4
Lattice="3.128588 0.0 0.0 -1.5642939988088433 2.709436998432005 0.0 0.0 0.0 5.016955" Properties=species:S:1:pos:R:3:spacegroup_kinds:I:1:forces:R:3 spacegroup="P 1" unit_cell=conventional occupancy="_JSON {\"0\": {\"Al\": 1}, \"1\": {\"Al\": 1}, \"2\": {\"N\": 1}, \"3\": {\"N\": 1}}" energy=-29.673715591430664 free_energy=-29.673715591430664 stress="-0.0022254667710512877 -1.3793820698992931e-06 1.9140287577101844e-08 -1.3793820698992931e-06 -0.0022273885551840067 -5.6044935803356566e-08 1.9140287577101844e-08 -5.6044935803356566e-08 -0.005453661549836397" pbc="T T T"
Al       1.56429556       0.90314476       2.50490041        0      -0.00003478       0.00001988       0.00553233
Al      -0.00000156       1.80629224       5.01337791        1       0.00003420      -0.00001816       0.00552410
N        1.56429556       0.90314476       4.41849749        2      -0.00003602       0.00001936      -0.00553079
N       -0.00000156       1.80629224       1.91001999        3       0.00003649      -0.00002103      -0.00552557
