56
Lattice="10.7619164 0.0 0.0 -9.665296305262016 4.732958053065482 0.0 -0.5483100463354086 -2.3664790220718444 10.484177494289693" Properties=species:S:1:pos:R:3:spacegroup_kinds:I:1:forces:R:3 spacegroup="P 1" unit_cell=conventional occupancy="_JSON {\"0\": {\"H\": 1}, \"1\": {\"H\": 1}, \"2\": {\"H\": 1}, \"3\": {\"H\": 1}, \"4\": {\"H\": 1}, \"5\": {\"H\": 1}, \"6\": {\"H\": 1}, \"7\": {\"H\": 1}, \"8\": {\"H\": 1}, \"9\": {\"H\": 1}, \"10\": {\"H\": 1}, \"11\": {\"H\": 1}, \"12\": {\"H\": 1}, \"13\": {\"H\": 1}, \"14\": {\"H\": 1}, \"15\": {\"H\": 1}, \"16\": {\"H\": 1}, \"17\": {\"H\": 1}, \"18\": {\"H\": 1}, \"19\": {\"H\": 1}, \"20\": {\"H\": 1}, \"21\": {\"H\": 1}, \"22\": {\"H\": 1}, \"23\": {\"H\": 1}, \"24\": {\"H\": 1}, \"25\": {\"H\": 1}, \"26\": {\"H\": 1}, \"27\": {\"H\": 1}, \"28\": {\"H\": 1}, \"29\": {\"H\": 1}, \"30\": {\"H\": 1}, \"31\": {\"H\": 1}, \"32\": {\"C\": 1}, \"33\": {\"C\": 1}, \"34\": {\"C\": 1}, \"35\": {\"C\": 1}, \"36\": {\"C\": 1}, \"37\": {\"C\": 1}, \"38\": {\"C\": 1}, \"39\": {\"C\": 1}, \"40\": {\"C\": 1}, \"41\": {\"C\": 1}, \"42\": {\"C\": 1}, \"43\": {\"C\": 1}, \"44\": {\"C\": 1}, \"45\": {\"C\": 1}, \"46\": {\"C\": 1}, \"47\": {\"C\": 1}, \"48\": {\"O\": 1}, \"49\": {\"O\": 1}, \"50\": {\"O\": 1}, \"51\": {\"O\": 1}, \"52\": {\"O\": 1}, \"53\": {\"O\": 1}, \"54\": {\"O\": 1}, \"55\": {\"O\": 1}}" energy=-315.21038818359375 free_energy=-315.21038818359375 stress="0.0014446394052356482 -0.0005629368242807686 7.840970539518821e-08 -0.0005629368242807686 -0.000854599173180759 -7.263361823106607e-08 7.840970539518821e-08 -7.263361823106607e-08 0.0015756178181618452" pbc="T T T"
H       -0.01146673       2.27735378       1.83228362        0       0.05954185      -0.00327678       0.06233814
H        0.46354043      -0.32622645       8.65189388        1      -0.05491819       0.02317676      -0.06235576
H        7.11783644      -0.62125595       5.76730110        2       0.06303566      -0.00415081      -0.05874442
H        3.54784285       0.20590514       4.71687607        3      -0.05845379       0.02398709       0.05874052
H        5.94073499       0.08912526       3.40980511        4      -0.05953900       0.00327740      -0.06233697
H        4.91741780       0.32622654       7.07437242        5       0.05491344      -0.02316874       0.06236465
H       -1.73687825       0.62125611       9.95896512        6      -0.06303775       0.00415807       0.05874515
H        2.38142539       2.16057389       0.52521268        7       0.05845485      -0.02398781      -0.05874407
H       -1.38551755       1.18149075       2.11598469        8      -0.01113784       0.08955126       0.00594873
H       -8.44966009       2.81824229       8.36819218        9       0.04931302       0.07553615      -0.00592632
H       -2.58205883       2.70548917       6.85853646       10       0.02489266       0.08117884       0.03102876
H       -6.70482302       3.66072964       3.62563947       11       0.01337802       0.08383632      -0.03101415
H       -3.44713061       1.18498829       3.12610408       12       0.01115907      -0.08955138      -0.00594432
H       -6.59659444       1.91471577       7.35807408       13      -0.04930632      -0.07554580       0.00593418
H       -1.70227922       2.02746897       8.86772962       14      -0.02490191      -0.08118932      -0.03099488
H       -7.79312147       3.43870742       1.61644926       15      -0.01337437      -0.08383937       0.03100579
H       -0.77623955       0.71965044       4.36329758       16      -0.01323415      -0.01213533       0.02308646
H        1.56195590       2.67141835       6.12088029       17       0.00653458      -0.01672770      -0.02309614
H       -0.46326720       1.89389614       6.16073603       18       0.01919717      -0.01968246       0.01018752
H        0.70065482      -0.86930480       4.32344242       19      -0.02583048      -0.00920790      -0.01018474
H        6.70550784       1.64682866       0.87879113       20       0.01323259       0.01213492      -0.02308434
H       -5.84629404       2.06153966       9.60538592       21      -0.00653620       0.01672609       0.02309458
H        5.84422537      -1.89389612       9.56553025       22      -0.01918952       0.01966893      -0.01017750
H       -5.53330301       3.23578383       0.91864627       23       0.02584141       0.00921565       0.01018964
H        0.25118892       0.51320651       1.94904363       24      -0.01401144      -0.01703019      -0.02868513
H       -0.54820846      -1.79509607       8.53513266       25       0.00518283      -0.02145685       0.02868143
H       -2.80824659       2.46883416       5.11321220       26      -0.03240878      -0.01272127       0.00990915
H       -6.60574339       3.34870703       5.37096440       27       0.02347720      -0.02566862      -0.00992428
H       -5.08383701       1.85327247       3.29304511       28       0.01400424       0.01703764       0.02868903
H       -4.83274950       1.79509621       7.19113351       29      -0.00520901       0.02144488      -0.02866527
H       -0.92778153       4.63060280       0.12887635       30       0.03240998       0.01272197      -0.00991095
H        2.32140525       1.38425107      10.35530181       31      -0.02347621       0.02567154       0.00991908
C       -0.12855714       1.44666453       3.84724415       32      -0.06474283      -0.02297667       0.02711239
C        0.20337421      -1.12376649       6.63693320       33       0.04808414      -0.04911351      -0.02706045
C       -0.77313051       2.84277401       5.69386796       34       0.01803082      -0.04222227       0.05795941
C        1.39625478      -0.15339355       4.79030936       35      -0.03474370      -0.02991611      -0.05791889
C        6.05782527       0.91981442       1.39484460       36       0.06475925       0.02297439      -0.02710554
C       -5.58433220       1.12376664       9.08933302       37      -0.04808948       0.04911432       0.02707905
C       -3.51120741       1.89018400      10.03239814       38      -0.01806939       0.04223095      -0.05796761
C        4.53301350       2.51987246       0.45177956       39       0.03474545       0.02992249       0.05790870
C       -0.32629465       1.35816531       2.34320611       40       0.01375285       0.00372945      -0.01268048
C        0.34204072      -1.29021282       8.14097362       41      -0.01071895       0.00947002       0.01263753
C       -2.26788800       3.05478921       5.86652618       42      -0.01084369       0.00948797      -0.01263961
C        2.83194263      -0.62035933       4.61765399       43       0.01386542       0.00376204       0.01261099
C        6.25556281       1.00831377       2.89888265       44      -0.01376706      -0.00373699       0.01266788
C       -5.72299919       1.29021260       7.58529263       45       0.01074450      -0.00945094      -0.01267867
C       -2.01645026       1.67816877       9.85974052       46       0.01086770      -0.00949141       0.01260874
C        3.09732573       2.98683830       0.62443475       47      -0.01388488      -0.00375897      -0.01259740
O       -0.42617554       2.75832690       4.28195553       48      -0.00160893      -0.01560237      -0.00606980
O        1.04750942      -0.07664206       6.20222131       49      -0.00535025      -0.01474363       0.00606467
O       -1.17299330      -0.80891944       6.27987374       50      -0.00939982      -0.01381624      -0.00193550
O        1.24603231       1.12411993       4.20430308       51       0.00225449      -0.01656120       0.00193482
O       -3.30985251       4.34111018       0.96013317       52       0.00160959       0.01560222       0.00605905
O        4.33344870       0.07664206       9.52404498       53       0.00534943       0.01474231      -0.00606660
O       -4.20796491       0.80891949       9.44639259       54       0.00941805       0.01382470       0.00193525
O        4.68323599       1.24235915       1.03778562       55      -0.00226662       0.01654622      -0.00193141
