32
Lattice="6.17176593 0.0 0.0 0.0 8.01859859 0.0 0.0 0.0 13.03281824" Properties=species:S:1:pos:R:3:spacegroup_kinds:I:1:momenta:R:3:forces:R:3 spacegroup="P 1" unit_cell=conventional occupancy="_JSON {\"0\": {\"Li\": 1}, \"1\": {\"Li\": 1}, \"2\": {\"Li\": 1}, \"3\": {\"Li\": 1}, \"4\": {\"Li\": 1}, \"5\": {\"Li\": 1}, \"6\": {\"Li\": 1}, \"7\": {\"Li\": 1}, \"8\": {\"Li\": 1}, \"9\": {\"Li\": 1}, \"10\": {\"Li\": 1}, \"11\": {\"Li\": 1}, \"12\": {\"P\": 1}, \"13\": {\"P\": 1}, \"14\": {\"P\": 1}, \"15\": {\"P\": 1}, \"16\": {\"S\": 1}, \"17\": {\"S\": 1}, \"18\": {\"S\": 1}, \"19\": {\"S\": 1}, \"20\": {\"S\": 1}, \"21\": {\"S\": 1}, \"22\": {\"S\": 1}, \"23\": {\"S\": 1}, \"24\": {\"S\": 1}, \"25\": {\"S\": 1}, \"26\": {\"S\": 1}, \"27\": {\"S\": 1}, \"28\": {\"S\": 1}, \"29\": {\"S\": 1}, \"30\": {\"S\": 1}, \"31\": {\"S\": 1}}" energy=-139.55946350097656 free_energy=-139.55946350097656 stress="-0.0006745168939232826 0.0019241753034293652 -0.00041098464862443507 0.0019241753034293652 -0.005955769680440426 0.0003484605986159295 -0.00041098464862443507 0.0003484605986159295 -0.004899444989860058" pbc="T T T"
Li       2.24899603       0.30436659       4.42028790        0       0.28181542       0.31571613       0.10663539      -0.02227440      -0.21366984       0.12033428
Li       3.30646886       7.83434349       8.59910121        1      -0.26738276       0.27657421       0.00928694       0.67670077      -0.63065761       0.23914722
Li       5.48343738       7.75463046       2.12414524        2      -0.29923454       0.42985194       0.04491087      -0.03737187       0.12185805       0.12768888
Li       0.37971816       0.63485609      10.88908847        3      -0.59903347      -0.36306284       0.84339356      -0.29766285      -0.41320169      -0.02091769
Li       3.85333402       4.16783750       8.73372768        4      -0.42796657       0.10929898      -0.25575956       0.07642413       0.33219534      -0.41757625
Li       2.54389525       3.55207537       4.36157838        5       0.81313028      -0.15746399       0.21265351       0.00589440       0.20053734      -0.04894018
Li       0.93987546       3.83411466      11.04999013        6      -0.03281628       0.24554020       0.59917939      -0.19664459      -0.09803969      -0.17520317
Li       5.63416867       4.10711626       2.05053555        7       0.55960306      -0.28933811      -0.21125130       0.03298619       0.23848803       0.09954425
Li       2.75228126      -0.73401856      -0.07812681        8       0.32266731      -0.48486034       0.63543196      -0.18236372       0.20985678      -0.03208065
Li      -0.75489057       0.42778461       6.75787701        9      -0.13589180       0.34457244       0.97163515       0.38293156      -0.08844565      -0.17645492
Li       3.46161821       3.75277947      -0.05250407       10      -0.09155143      -0.06742113       0.25008753      -0.02356160      -0.23991954       0.16924623
Li       0.36896708       4.18650791       6.41796238       11      -0.91084181       0.54344359       0.09289863      -0.16929141       0.45634282       0.08869360
P        1.13932038       1.91054728       1.07798108       12       0.82791947       0.93687844      -0.83536252      -0.87781549       1.17302918      -0.31206834
P        5.17976226       6.01856041      11.81957574       13      -0.66117996       0.24509022       0.69737445      -0.04526778      -0.29152712      -0.76540542
P        4.05747644       5.94628662       5.36462048       14      -0.02318396      -1.24457595      -0.34391968      -0.52573651       1.32023787      -0.28695080
P        1.98332691       2.08073284       7.82719720       15       0.15184235       1.07694991       1.06840316       0.52563226       0.33323193      -0.13810399
S        5.20484576       1.99620417       1.14391686       16      -0.54044894       0.58149298      -1.97050416       0.62727010      -0.35010514       0.01658320
S        1.01842568       6.11857464      11.58303669       17      -1.14967415       0.51478296       0.10770957       0.30422378       0.20839421      -0.03782422
S        1.95622005       5.90164842       5.39841598       18      -0.28422339      -0.48561014      -0.83735215       1.02665424       0.13105798      -0.40838617
S        4.07167158       1.94422267       7.97423411       19       1.37579831      -1.25187371       0.34389900      -0.45298308       0.05508746      -0.05474938
S        1.81070503       1.87883649      12.14102214       20       0.70322318      -0.18015633      -0.36186735       0.29225591       0.33447590       0.59839511
S        4.61334349       5.92539699       0.76210253       21       0.35924043      -1.12128445       0.95059505      -0.22841859      -0.23272531       0.34384763
S        4.86799114       5.99934562       7.24850463       22      -0.21943982       0.72001412       0.25337250      -0.13666496       0.01133718       0.38171896
S        1.25675689       2.10302819       5.88677427       23       0.53102210      -0.26971790       0.34129192       0.13855273      -0.34765336      -0.29645032
S        1.81459934       0.25632463       1.97516211       24      -1.26011812      -0.44223260      -0.49119208       0.04074955      -0.67768794       0.33267409
S        4.28091643       7.67214460      11.04724720       25       0.57446826       1.23511877       0.85054667       0.01535837       0.02877563      -0.10350968
S        4.68013138       7.85810093       4.52506767       26      -0.20030509      -0.76754864      -0.71871555      -0.44205210      -0.91639906       0.16456819
S        1.15255552       0.42614724       8.64928353       27      -1.60410076      -1.25167195      -1.08484493      -0.65585774      -0.09384015      -0.04863260
S        4.53511874       4.25189580      10.87988307       28      -1.27435360       0.98462366      -2.02535958       0.39350182       0.39215893       0.91331786
S        1.83195808       3.65864811       1.98110466       29       2.68797002      -1.33384575       0.14375852       0.09625866      -0.32413134      -0.26995212
S        1.50029222       3.88281139       8.64731994       30      -0.87344543       0.35437423       0.05271783      -0.27298519      -0.16204663      -0.02369096
S        4.90184742       4.41142762       4.37242664       31       1.66649178       0.79634098       0.56034741      -0.06844229      -0.46701491       0.02113701
