32
Lattice="6.17176593 0.0 0.0 0.0 8.01859859 0.0 0.0 0.0 13.03281824" Properties=species:S:1:pos:R:3:spacegroup_kinds:I:1:momenta:R:3:forces:R:3 spacegroup="P 1" unit_cell=conventional occupancy="_JSON {\"0\": {\"Li\": 1}, \"1\": {\"Li\": 1}, \"2\": {\"Li\": 1}, \"3\": {\"Li\": 1}, \"4\": {\"Li\": 1}, \"5\": {\"Li\": 1}, \"6\": {\"Li\": 1}, \"7\": {\"Li\": 1}, \"8\": {\"Li\": 1}, \"9\": {\"Li\": 1}, \"10\": {\"Li\": 1}, \"11\": {\"Li\": 1}, \"12\": {\"P\": 1}, \"13\": {\"P\": 1}, \"14\": {\"P\": 1}, \"15\": {\"P\": 1}, \"16\": {\"S\": 1}, \"17\": {\"S\": 1}, \"18\": {\"S\": 1}, \"19\": {\"S\": 1}, \"20\": {\"S\": 1}, \"21\": {\"S\": 1}, \"22\": {\"S\": 1}, \"23\": {\"S\": 1}, \"24\": {\"S\": 1}, \"25\": {\"S\": 1}, \"26\": {\"S\": 1}, \"27\": {\"S\": 1}, \"28\": {\"S\": 1}, \"29\": {\"S\": 1}, \"30\": {\"S\": 1}, \"31\": {\"S\": 1}}" energy=-140.31869506835938 free_energy=-140.31869506835938 stress="-0.007170616649091244 1.3862849757018125e-09 8.750371982557681e-09 1.3862849757018125e-09 -0.008259408175945282 4.671472098038976e-09 8.750371982557681e-09 4.671472098038976e-09 -0.0052662985399365425" pbc="T T T"
Li       2.40329652       0.26860172       4.33400832        0       0.00000000       0.00000000       0.00000000      -0.02603568       0.00549140      -0.00432097
Li       3.76846941       7.74999687       8.69880992        1       0.00000000       0.00000000       0.00000000       0.02603726      -0.00549202       0.00432303
Li       5.48917948       7.74999687       2.18240080        2       0.00000000       0.00000000       0.00000000      -0.02603630      -0.00549120       0.00432274
Li       0.68258645       0.26860172      10.85041744        3       0.00000000       0.00000000       0.00000000       0.02603480       0.00549221      -0.00431946
Li       3.76846941       4.27790102       8.69880992        4       0.00000000       0.00000000       0.00000000       0.02603620       0.00549150       0.00432244
Li       2.40329652       3.74069757       4.33400832        5       0.00000000       0.00000000       0.00000000      -0.02603600      -0.00549159      -0.00432136
Li       0.68258645       3.74069757      10.85041744        6       0.00000000       0.00000000       0.00000000       0.02603583      -0.00549273      -0.00432029
Li       5.48917948       4.27790102       2.18240080        7       0.00000000       0.00000000       0.00000000      -0.02603660       0.00549144       0.00432291
Li       3.08588297       0.00000000       0.00000000        8       0.00000000       0.00000000       0.00000000      -0.00000019      -0.00000116      -0.00000102
Li       0.00000000       0.00000000       6.51640912        9       0.00000000       0.00000000       0.00000000       0.00000009      -0.00000032       0.00000040
Li       3.08588297       4.00929929       0.00000000       10       0.00000000       0.00000000       0.00000000       0.00000074       0.00000054       0.00000052
Li       0.00000000       4.00929929       6.51640912       11       0.00000000       0.00000000       0.00000000       0.00000022      -0.00000003      -0.00000079
P        0.94051010       2.00464965       1.16601784       12       0.00000000       0.00000000       0.00000000      -0.02067241      -0.00000083       0.02376188
P        5.23125583       6.01394894      11.86680040       13       0.00000000       0.00000000       0.00000000       0.02066672       0.00000228      -0.02375937
P        4.02639307       6.01394894       5.35039128       14       0.00000000       0.00000000       0.00000000      -0.02066772       0.00000085      -0.02375723
P        2.14537286       2.00464965       7.68242696       15       0.00000000       0.00000000       0.00000000       0.02066828      -0.00000060       0.02375609
S        5.08970823       2.00464965       1.30575389       16       0.00000000       0.00000000       0.00000000      -0.25450560      -0.00000070       0.01679027
S        1.08205770       6.01394894      11.72706435       17       0.00000000       0.00000000       0.00000000       0.25450647       0.00000053      -0.01679297
S        2.00382526       6.01394894       5.21065523       18       0.00000000       0.00000000       0.00000000      -0.25450537      -0.00000058      -0.01679113
S        4.16794067       2.00464965       7.82216301       19       0.00000000       0.00000000       0.00000000       0.25450176       0.00000026       0.01679087
S        1.68132889       2.00464965      12.25955363       20       0.00000000       0.00000000       0.00000000       0.10912256       0.00000022      -0.16719642
S        4.49043704       6.01394894       0.77326461       21       0.00000000       0.00000000       0.00000000      -0.10912032       0.00000013       0.16718113
S        4.76721186       6.01394894       7.28967373       22       0.00000000       0.00000000       0.00000000       0.10912078       0.00000003       0.16717994
S        1.40455407       2.00464965       5.74314451       23       0.00000000       0.00000000       0.00000000      -0.10911963       0.00000062      -0.16718078
S        1.67233151       0.29287049       2.00524453       24       0.00000000       0.00000000       0.00000000       0.13957815      -0.21272646       0.08709882
S        4.49943442       7.72572810      11.02757371       25       0.00000000       0.00000000       0.00000000      -0.13957511       0.21272540      -0.08709216
S        4.75821447       7.72572810       4.51116459       26       0.00000000       0.00000000       0.00000000       0.13957533       0.21272552      -0.08709141
S        1.41355146       0.29287049       8.52165365       27       0.00000000       0.00000000       0.00000000      -0.13957553      -0.21272063       0.08709137
S        4.49943442       4.30216979      11.02757371       28       0.00000000       0.00000000       0.00000000      -0.13957785      -0.21272621      -0.08709304
S        1.67233151       3.71642880       2.00524453       29       0.00000000       0.00000000       0.00000000       0.13957852       0.21272671       0.08709885
S        1.41355146       3.71642880       8.52165365       30       0.00000000       0.00000000       0.00000000      -0.13957593       0.21272078       0.08709028
S        4.75821447       4.30216979       4.51116459       31       0.00000000       0.00000000       0.00000000       0.13957645      -0.21272521      -0.08709316
32
Lattice="6.17176593 0.0 0.0 0.0 8.01859859 0.0 0.0 0.0 13.03281824" Properties=species:S:1:pos:R:3:spacegroup_kinds:I:1:momenta:R:3:forces:R:3 spacegroup="P 1" unit_cell=conventional occupancy="_JSON {\"0\": {\"Li\": 1}, \"1\": {\"Li\": 1}, \"2\": {\"Li\": 1}, \"3\": {\"Li\": 1}, \"4\": {\"Li\": 1}, \"5\": {\"Li\": 1}, \"6\": {\"Li\": 1}, \"7\": {\"Li\": 1}, \"8\": {\"Li\": 1}, \"9\": {\"Li\": 1}, \"10\": {\"Li\": 1}, \"11\": {\"Li\": 1}, \"12\": {\"P\": 1}, \"13\": {\"P\": 1}, \"14\": {\"P\": 1}, \"15\": {\"P\": 1}, \"16\": {\"S\": 1}, \"17\": {\"S\": 1}, \"18\": {\"S\": 1}, \"19\": {\"S\": 1}, \"20\": {\"S\": 1}, \"21\": {\"S\": 1}, \"22\": {\"S\": 1}, \"23\": {\"S\": 1}, \"24\": {\"S\": 1}, \"25\": {\"S\": 1}, \"26\": {\"S\": 1}, \"27\": {\"S\": 1}, \"28\": {\"S\": 1}, \"29\": {\"S\": 1}, \"30\": {\"S\": 1}, \"31\": {\"S\": 1}}" energy=-139.82412719726562 free_energy=-139.82412719726562 stress="0.0006856562104076147 -0.0012571752304211259 -8.941708802012727e-05 -0.0012571752304211259 -0.0010752025991678238 0.002897802274674177 -8.941708802012727e-05 0.002897802274674177 -0.004354131408035755" pbc="T T T"
Li       2.23950332       0.27705065       4.41531875        0       0.08256294       0.45822923       0.09234973       0.22608182      -0.08963378      -0.11982188
Li       3.92032492       7.83925360       8.80401456        1       0.16404473      -0.10943540      -0.23635573      -0.14078462      -0.13311607      -0.48817891
Li       5.48499689       7.77085499       2.07938453        2      -0.23697102       0.25295268      -0.12626649       0.02367333       0.01935370       0.12935297
Li       0.54871840       0.17938459      10.72202713        3       0.20509941      -0.05518182      -0.16101774       0.14176978       0.14633879       0.13826919
Li       3.86782494       4.21561065       8.79055605        4       0.14643432       0.00356460       0.30972225      -0.15721568       0.07653952      -0.38092729
Li       2.42277230       3.57222773       4.33403410        5      -0.26606017      -0.57499127       0.25634919       0.17624976       0.30894724      -0.01903999
Li       0.83482861       3.67950228      10.85878004        6       0.43975839       0.48925151       0.13958506      -0.22143586       0.25463831       0.01722889
Li       5.54621375       4.39515653       2.32230416        7      -0.04911332       0.18101569       0.27287938      -0.01517070      -0.18640743      -0.06402767
Li       2.97457414       0.01167171      -0.11147861        8      -0.42301146      -0.06277660      -0.16899288       0.03156551      -0.15775447       0.14991739
Li      -0.02434375       0.00276441       6.54848120        9       0.22733485       0.33150556      -0.44813037      -0.11772554      -0.04486362      -0.09647477
Li       3.08342731       4.01621361       0.22062624       10       0.05569819       0.13840592       0.10022284       0.20300721       0.01231656      -0.28290215
Li       0.08329468       4.00888038       6.61492404       11       0.02353337       0.35532700       0.05177430      -0.26120892       0.20075016      -0.24522042
P        0.97542248       2.02351843       1.12542405       12      -0.25517686       0.28863744      -0.20808844      -0.22131091       0.65429854       0.58694708
P        5.21334124       5.94229369      11.83865314       13       0.11276177       0.35396579       0.61294589       0.42098978       0.77555633       0.02722850
P        3.95502287       5.99399989       5.34075234       14      -0.17492875      -0.74239217       0.02560388       0.84153080       0.09617895      -0.14141205
P        2.09620147       2.00588223       7.71550943       15      -1.07983317       0.54586232       1.02699954       0.47409767       1.08902144      -0.44660467
S        5.11152847       2.03179494       1.31319809       16       0.27547256       0.50828635      -0.06347547       0.11545372       0.05022125      -0.13330097
S        1.11852675       6.02577628      11.69446343       17      -0.79414085       0.60957095      -0.21481740      -0.60005480      -0.00167126      -0.03937522
S        1.93755817       5.98371848       5.21019980       18       0.04013404      -0.40809120      -0.19554321      -0.09424942       0.05100535      -0.11295575
S        4.14622933       2.01500551       7.78164917       19      -0.19631138      -0.42588372      -0.28819487      -0.04036043       0.06174381       0.05237672
S        1.74295168       2.02521711      12.22613977       20       0.77279589      -0.60833124       0.15367146      -0.04894806      -0.07376368       0.06400426
S        4.53541531       5.94428974       0.78158197       21       1.14871069      -0.68427620      -1.15336159      -0.13342403       0.23966332      -0.25918853
S        4.71656428       5.98831802       7.28593232       22      -1.08870346       0.62750783      -0.22593544       0.03241731       0.15534925       0.13298586
S        1.34851293       2.09046097       5.73041200       23      -0.63791971       0.23905122      -0.35109964      -0.15317506      -0.37462223       0.64237261
S        1.74981347       0.36077012       1.99659971       24       0.61765942      -0.14437530      -0.13549588       0.06849468      -0.40520018       0.06525713
S        4.38826726       7.72690010      11.00685822       25      -0.96616607      -0.57447966       1.12376135       0.46815339      -0.61609948       0.64947629
S        4.81594016       7.71064094       4.48711869       26       0.37108209      -0.87086011       0.09496632      -0.55057126      -0.38524199       0.12699836
S        1.49409352       0.25726407       8.48272274       27       0.90366506       1.00267727      -1.72118396      -0.45798892      -0.46020922       0.30407393
S        4.50469196       4.26466147      10.98474025       28       0.04787963      -1.29030275       0.65213545       0.03587111      -0.31970152       0.34957659
S        1.67564376       3.75961549       2.10364982       29       0.17644080      -0.12511795       0.11509358      -0.13291477      -0.38171107      -0.49348480
S        1.41504300       3.81318458       8.57316743       30       0.61541293      -0.08529485       0.41755886       0.25221097      -0.76253557      -0.22044700
S        4.74771206       4.24719221       4.55322318       31      -0.25814485       0.37597896       0.25234012      -0.16502780       0.20060906       0.10729630
32
Lattice="6.17176593 0.0 0.0 0.0 8.01859859 0.0 0.0 0.0 13.03281824" Properties=species:S:1:pos:R:3:spacegroup_kinds:I:1:momenta:R:3:forces:R:3 spacegroup="P 1" unit_cell=conventional occupancy="_JSON {\"0\": {\"Li\": 1}, \"1\": {\"Li\": 1}, \"2\": {\"Li\": 1}, \"3\": {\"Li\": 1}, \"4\": {\"Li\": 1}, \"5\": {\"Li\": 1}, \"6\": {\"Li\": 1}, \"7\": {\"Li\": 1}, \"8\": {\"Li\": 1}, \"9\": {\"Li\": 1}, \"10\": {\"Li\": 1}, \"11\": {\"Li\": 1}, \"12\": {\"P\": 1}, \"13\": {\"P\": 1}, \"14\": {\"P\": 1}, \"15\": {\"P\": 1}, \"16\": {\"S\": 1}, \"17\": {\"S\": 1}, \"18\": {\"S\": 1}, \"19\": {\"S\": 1}, \"20\": {\"S\": 1}, \"21\": {\"S\": 1}, \"22\": {\"S\": 1}, \"23\": {\"S\": 1}, \"24\": {\"S\": 1}, \"25\": {\"S\": 1}, \"26\": {\"S\": 1}, \"27\": {\"S\": 1}, \"28\": {\"S\": 1}, \"29\": {\"S\": 1}, \"30\": {\"S\": 1}, \"31\": {\"S\": 1}}" energy=-139.7973175048828 free_energy=-139.7973175048828 stress="-0.0037128443364053965 -0.00038649330963380635 -0.0014627125347033143 -0.00038649330963380635 -0.0031376490369439125 0.0043844194151461124 -0.0014627125347033143 0.0043844194151461124 -0.004539951682090759" pbc="T T T"
Li       2.57859670       0.31776725       4.45273543        0       0.17564280      -0.08591024       0.06320483      -0.45198414       0.08728853      -0.04594976
Li       3.83257203       7.90722600       8.66216286        1      -0.48694944       0.10377954       0.19848028      -0.10379831      -0.08040880      -0.05260045
Li       5.47001430       7.94760509       2.11956405        2       0.44326132      -0.28365278       0.18254007      -0.03432216      -0.15999603      -0.13053915
Li       0.89746137       0.36554509      10.74287829        3       0.38013606       0.35462985       0.36110957      -0.31682888      -0.12648541      -0.03553310
Li       3.90941805       4.32631052       8.66455549        4      -0.06278773      -0.02954977       0.11701587      -0.12828118      -0.17297336       0.23277247
Li       2.41680713       3.63076646       4.26799039        5      -0.26823321       0.49499978      -0.07993435      -0.02282146      -0.00543130       0.17700899
Li       0.85652334       3.83704269      10.94608452        6       0.11017469      -0.38101723       0.53277324       0.04165540      -0.01630655       0.06400623
Li       5.51281918       4.39277055       2.30994899        7      -0.04293865      -0.06590647       0.18907468      -0.02583224       0.02826292       0.02731842
Li       2.75715343      -0.28096000      -0.15476354        8       0.13017410      -0.74514852      -0.08971109       0.08393337      -0.08564691       0.10022073
Li      -0.05203509       0.07497731       6.35833200        9      -0.00289320       0.19927489      -0.03372876       0.06703740       0.00941652       0.26007244
Li       3.32202873       3.91039789       0.14585557       10       0.61649846      -0.55830628      -0.33220658      -0.06172147      -0.08402186       0.17763615
Li       0.20373156       4.39081864       6.49241661       11       0.56415939       0.49706091      -0.21365270       0.13684578      -0.08835953       0.01504429
P        0.98841589       2.05075319       1.17156324       12       0.32412231      -1.40861902      -0.37706572      -0.07130632       0.60575038       0.13965210
P        5.16321262       5.87517386      11.79278812       13       0.01359915      -1.13439952       0.30334285       0.74329376       0.69592190       1.07436824
P        3.97023554       5.93733466       5.36598126       14      -0.71480429      -0.71968707       0.76191380       0.21727218      -0.90026623      -0.11976212
P        2.14827650       2.10504553       7.68864111       15      -0.47045366      -1.21419725       0.16572970      -0.58704638      -0.37007183       0.37083772
S        5.10929736       2.20238598       1.33619931       16      -0.07612986       0.55465665       0.40671455       0.22697352      -0.58114201      -0.07051671
S        1.04564745       6.13708008      11.69429045       17       0.95658272       0.88880925      -0.58330376      -0.06757279      -0.32265508      -0.16991057
S        1.94522638       5.89890701       5.15373794       18       0.03354594      -0.33348705      -0.09441258      -0.04749575       0.35588366      -0.02068204
S        4.15770227       2.07886177       7.66958883       19       1.32700724       1.72206177      -0.90489322       0.36206409       0.12422230       0.15038055
S        1.76764490       2.07164908      12.25576248       20      -0.44026072       1.30011639       1.39058201      -0.03810010      -0.15165833       0.28245950
S        4.54034356       6.00316441       0.78412580       21      -1.13073194       1.35867053       0.69684318      -0.17511880       0.05793107      -0.30567122
S        4.69204729       6.09395066       7.31839141       22       0.55520336      -0.03111390      -0.25772438       0.13535556       0.05470972      -0.17502871
S        1.30401807       2.06198059       5.81285785       23      -0.15555218       0.13573578       0.02515451      -0.02573862       0.19717377      -0.63461202
S        1.75599973       0.33729005       2.01548495       24      -0.83857995       0.79198280       0.09242287      -0.30514225       0.09290531       0.08254491
S        4.35040604       7.51843615      10.95131233       25      -1.28182318      -1.35559447      -2.29533108      -0.21628156       0.43656132      -0.22516727
S        4.75891943       7.58035919       4.43953847       26      -0.60434609       0.47435244      -0.64807017       0.22766766       0.19828480      -0.14308250
S        1.42627434       0.29689374       8.41871319       27      -0.22626203       0.65954523       0.10259811       0.04770254       0.16675131       0.18723428
S        4.62150357       4.05379402      11.14416347       28      -0.20780515      -1.12159822       0.34156833      -0.18115462      -0.16748831      -0.53839248
S        1.64706138       3.79795826       2.07684144       29       0.84413563       0.68904226      -0.61888653       0.30624142      -0.24603204      -0.41720039
S        1.40734521       3.78460900       8.65962328       30      -0.22259725      -0.15621104       0.51426938       0.32776278      -0.20218074      -0.47948277
S        4.73408054       4.14048771       4.61083183       31       0.75890542      -0.60031930       0.08358313      -0.06325847       0.65006071       0.22257441
32
Lattice="6.17176593 0.0 0.0 0.0 8.01859859 0.0 0.0 0.0 13.03281824" Properties=species:S:1:pos:R:3:spacegroup_kinds:I:1:momenta:R:3:forces:R:3 spacegroup="P 1" unit_cell=conventional occupancy="_JSON {\"0\": {\"Li\": 1}, \"1\": {\"Li\": 1}, \"2\": {\"Li\": 1}, \"3\": {\"Li\": 1}, \"4\": {\"Li\": 1}, \"5\": {\"Li\": 1}, \"6\": {\"Li\": 1}, \"7\": {\"Li\": 1}, \"8\": {\"Li\": 1}, \"9\": {\"Li\": 1}, \"10\": {\"Li\": 1}, \"11\": {\"Li\": 1}, \"12\": {\"P\": 1}, \"13\": {\"P\": 1}, \"14\": {\"P\": 1}, \"15\": {\"P\": 1}, \"16\": {\"S\": 1}, \"17\": {\"S\": 1}, \"18\": {\"S\": 1}, \"19\": {\"S\": 1}, \"20\": {\"S\": 1}, \"21\": {\"S\": 1}, \"22\": {\"S\": 1}, \"23\": {\"S\": 1}, \"24\": {\"S\": 1}, \"25\": {\"S\": 1}, \"26\": {\"S\": 1}, \"27\": {\"S\": 1}, \"28\": {\"S\": 1}, \"29\": {\"S\": 1}, \"30\": {\"S\": 1}, \"31\": {\"S\": 1}}" energy=-139.3429412841797 free_energy=-139.3429412841797 stress="-0.009565085172653198 0.0010764269391074777 -0.0012395321391522884 0.0010764269391074777 -0.005958240013569593 0.003898915369063616 -0.0012395321391522884 0.003898915369063616 -0.006382114253938198" pbc="T T T"
Li       2.30746962       0.30995739       4.45937468        0      -0.41337134      -0.31017601      -0.37280764       0.01974799      -0.09073418      -0.16301596
Li       3.65006347       7.93585927       8.41645133        1      -0.13908761       0.00538108      -0.76693721       0.08560782      -0.27710634       0.20793280
Li       5.58575965       7.63125252       2.11395378        2      -0.00395134      -0.06511368       0.23572799      -0.08145323       0.21462809       0.13509241
Li       0.56010458       0.40376311      11.00036389        3      -0.91043845       0.45319941       0.09314300      -0.15879613      -0.07074929      -0.24009976
Li       3.99341746       4.18651585       8.99303354        4       0.14120118      -0.31440193       0.17258002      -0.11017102       0.21596809      -0.35488397
Li       2.21154575       3.79514514       4.31758187        5       0.00964568      -0.15438546       0.30470014       0.23019391      -0.09475825       0.03858166
Li       0.79804403       3.86423290      11.13090369        6      -0.19451785      -0.17905109      -0.06763615       0.30185387      -0.38563472      -0.29702210
Li       5.57303560       4.25557211       2.38198847        7       0.19554697      -0.46112403      -0.62971799      -0.13332513       0.22522232      -0.15998313
Li       2.68939562      -0.60065310      -0.08204638        8      -0.43298285       0.85134617      -0.12678627      -0.29788095       0.36120623      -0.06456795
Li      -0.41046207       0.33012914       6.66832117        9      -0.59068232       0.46859160       0.32327438       0.20106368       0.01435290      -0.09799740
Li       3.72531822       3.49899831       0.26184874       10      -0.01278678      -0.05650147       0.01751639      -0.41670865       0.08875076      -0.01716100
Li       0.55489186       4.45218697       6.58769733       11       0.05175148       0.35682584       0.43851142      -0.28913182       0.23690504      -0.20709743
P        0.94031866       2.20915963       1.18611952       12       0.23314447      -0.46638768      -0.19137457       0.53014076      -1.99806476       0.02442193
P        5.21944115       5.93363144      11.81740206       13       0.29160880       0.32673344      -1.80250952       0.11195011      -0.63547301       0.12810268
P        4.06514241       5.88673595       5.30995824       14      -0.24974476       1.51066377       0.78771756      -0.44711405      -0.79197246       1.17877889
P        2.16606970       2.10557414       7.65257917       15      -0.66100552      -0.35884188       0.09944277      -1.51275945      -0.45951521       0.70429730
S        5.10796679       1.99620418       1.42005284       16      -0.72461207      -2.07134341       0.38211139      -0.23349151       0.32484460       0.11679760
S        1.07498449       6.08214767      11.57214919       17      -0.23265293      -0.88998414       0.15835712       0.08370768       0.33313608       0.18100321
S        1.98412398       6.00218877       5.20500033       18       0.52691467       0.38830645       0.74272293       0.23973876      -0.23145361       0.05542640
S        4.14128130       2.15625195       7.54486641       19      -0.83835919      -0.15752629       0.34689476       1.02179193      -0.17749113       0.21846735
S        1.73544415       2.06937895      12.31458501       20       0.64000970      -0.03729694       0.30130232       0.03136123      -0.02043649      -0.05481848
S        4.46863977       6.15645706       0.69545496       21      -0.22736102      -1.01094677      -0.11958515       0.33655331      -0.84854829       0.53329474
S        4.77767584       6.13197376       7.33967113       22       1.31778706       0.25811545       0.29266727      -0.13427778      -0.51317668      -0.72693670
S        1.29772602       2.08372790       5.77940307       23      -0.15437842      -0.02406870       0.10541077      -0.22461261       0.00543436      -0.25793445
S        1.61474925       0.36117660       2.02917368       24       0.31545791      -0.67551891       0.48015279       0.29714316       0.63350487      -0.10832274
S        4.28912246       7.34302630      10.79264179       25       0.04642088      -0.34594894       0.44093747      -0.33312970       1.04592657      -0.43613157
S        4.68273483       7.54980470       4.43871744       26      -0.18349705       0.85682228      -0.24891677       0.63452935       1.10273826      -0.65175366
S        1.39128158       0.37269342       8.58996558       27      -0.29145073       0.82947972       0.29530145       0.09911187       0.60932553      -0.35622859
S        4.66990074       4.01068137      11.22502485       28       0.67433770       1.58670310       1.38574372      -0.03316791       0.23637538       0.00198417
S        1.74843902       3.84884748       2.00026329       29       0.52747753       1.62568436      -0.81570541       0.14161353       0.55855447       0.08149777
S        1.48460122       3.79753648       8.61781757       30       1.33410901      -0.29433712      -0.98469456       0.35230821      -0.13126785       0.17171228
S        4.77905079       4.09882951       4.55946856       31      -0.04453276      -1.64489821      -1.27754431      -0.31239721       0.51950866       0.41656375
32
Lattice="6.17176593 0.0 0.0 0.0 8.01859859 0.0 0.0 0.0 13.03281824" Properties=species:S:1:pos:R:3:spacegroup_kinds:I:1:momenta:R:3:forces:R:3 spacegroup="P 1" unit_cell=conventional occupancy="_JSON {\"0\": {\"Li\": 1}, \"1\": {\"Li\": 1}, \"2\": {\"Li\": 1}, \"3\": {\"Li\": 1}, \"4\": {\"Li\": 1}, \"5\": {\"Li\": 1}, \"6\": {\"Li\": 1}, \"7\": {\"Li\": 1}, \"8\": {\"Li\": 1}, \"9\": {\"Li\": 1}, \"10\": {\"Li\": 1}, \"11\": {\"Li\": 1}, \"12\": {\"P\": 1}, \"13\": {\"P\": 1}, \"14\": {\"P\": 1}, \"15\": {\"P\": 1}, \"16\": {\"S\": 1}, \"17\": {\"S\": 1}, \"18\": {\"S\": 1}, \"19\": {\"S\": 1}, \"20\": {\"S\": 1}, \"21\": {\"S\": 1}, \"22\": {\"S\": 1}, \"23\": {\"S\": 1}, \"24\": {\"S\": 1}, \"25\": {\"S\": 1}, \"26\": {\"S\": 1}, \"27\": {\"S\": 1}, \"28\": {\"S\": 1}, \"29\": {\"S\": 1}, \"30\": {\"S\": 1}, \"31\": {\"S\": 1}}" energy=-139.3795166015625 free_energy=-139.3795166015625 stress="-0.007151945494115353 0.0009956263238564134 0.0047019412741065025 0.0009956263238564134 -0.0051328809931874275 -0.003631581086665392 0.0047019412741065025 -0.003631581086665392 -0.006047373171895742" pbc="T T T"
Li       2.13185583       0.10705168       4.38244056        0      -0.14951708      -0.31962553       0.38593217       0.16871563       0.26214439      -0.03801410
Li       3.69205543       7.61381384       8.55909910        1      -0.25453654      -0.39216601       0.54348685      -0.24569704       0.22298907      -0.25367022
Li       5.48106576       7.63478419       2.25540507        2      -0.15959056       0.06120738       0.03780127       0.12235575       0.13493450      -0.24713971
Li       0.14921204       0.57329482      10.78712309        3       0.13869170       0.04112621      -0.12455351       0.31441227       0.04174055       0.17465410
Li       3.92225939       4.24601066       8.80057677        4      -0.25078016       0.15724391       0.30396466       0.16322781       0.01599360       0.11946192
Li       2.26530597       3.73671208       4.25138209        5      -0.17096694       0.14395806      -0.28822319      -0.06852963      -0.01641359       0.06010085
Li       0.82224739       3.66539914      10.89668290        6      -0.01658883       0.31837308      -0.12178176       0.01949370       0.17688131       0.14996547
Li       5.40840165       4.27869370       2.24916706        7       0.10825579       0.18692120       0.36433097       0.23200053      -0.02129002      -0.16185766
Li       2.57126885      -0.17602912      -0.28274227        8      -0.22757791      -0.45306937      -0.02011210       0.21915731      -0.49151888       0.01556274
Li      -0.34735551       0.53249045       6.61494126        9      -0.47566395      -0.30225196      -0.19680369      -0.41647354      -0.39334679       0.13839909
Li       3.41480110       3.64674245       0.29247121       10      -0.12292841       0.42003775      -0.63558619       0.31081179      -0.00588612      -0.41549829
Li       0.37547761       4.72665979       6.57543803       11       0.18916387      -0.92079839      -0.36544337       0.64434028      -0.65171671      -0.04587241
P        1.04251116       2.01933864       1.17782182       12      -0.09480090      -0.13312369      -0.72105743      -0.03165469      -0.33173171      -0.27139693
P        5.25858019       6.00246946      11.81816264       13      -0.14984923       0.91075235       0.04662893       0.34278816      -0.57971752      -0.99854010
P        4.06769419       5.94734790       5.33833728       14      -0.77388544       1.70529951      -1.30815619      -0.05475759       1.80544078       0.56983966
P        2.03691617       2.07047706       7.67441234       15       0.72136441       0.76268151       0.49486689       0.13885869       0.10996266       0.99599516
S        5.20393444       1.94543741       1.38059611       16       1.91677726       0.92844244      -1.35824695      -0.42808288       0.04141034      -0.00533105
S        1.13294599       6.05206536      11.60079299       17      -0.61419996       0.22749874      -0.33373788      -0.52770430       0.42455631      -0.10249613
S        2.04477873       6.00699354       5.35987597       18       0.10836925      -0.12745077       0.99669831      -0.57882261      -0.06553166      -0.06658871