32
Lattice="6.17176593 0.0 0.0 0.0 8.01859859 0.0 0.0 0.0 13.03281824" Properties=species:S:1:pos:R:3:spacegroup_kinds:I:1:forces:R:3 spacegroup="P 1" unit_cell=conventional occupancy="_JSON {\"0\": {\"Li\": 1}, \"1\": {\"Li\": 1}, \"2\": {\"Li\": 1}, \"3\": {\"Li\": 1}, \"4\": {\"Li\": 1}, \"5\": {\"Li\": 1}, \"6\": {\"Li\": 1}, \"7\": {\"Li\": 1}, \"8\": {\"Li\": 1}, \"9\": {\"Li\": 1}, \"10\": {\"Li\": 1}, \"11\": {\"Li\": 1}, \"12\": {\"P\": 1}, \"13\": {\"P\": 1}, \"14\": {\"P\": 1}, \"15\": {\"P\": 1}, \"16\": {\"S\": 1}, \"17\": {\"S\": 1}, \"18\": {\"S\": 1}, \"19\": {\"S\": 1}, \"20\": {\"S\": 1}, \"21\": {\"S\": 1}, \"22\": {\"S\": 1}, \"23\": {\"S\": 1}, \"24\": {\"S\": 1}, \"25\": {\"S\": 1}, \"26\": {\"S\": 1}, \"27\": {\"S\": 1}, \"28\": {\"S\": 1}, \"29\": {\"S\": 1}, \"30\": {\"S\": 1}, \"31\": {\"S\": 1}}" energy=-140.31869506835938 free_energy=-140.31869506835938 stress="-0.007170616649091244 1.3862849757018125e-09 8.750371982557681e-09 1.3862849757018125e-09 -0.008259408175945282 4.671472098038976e-09 8.750371982557681e-09 4.671472098038976e-09 -0.0052662985399365425" pbc="T T T"
Li       2.40329652       0.26860172       4.33400832        0      -0.02603568       0.00549140      -0.00432097
Li       3.76846941       7.74999687       8.69880992        1       0.02603726      -0.00549202       0.00432303
Li       5.48917948       7.74999687       2.18240080        2      -0.02603630      -0.00549120       0.00432274
Li       0.68258645       0.26860172      10.85041744        3       0.02603480       0.00549221      -0.00431946
Li       3.76846941       4.27790102       8.69880992        4       0.02603620       0.00549150       0.00432244
Li       2.40329652       3.74069757       4.33400832        5      -0.02603600      -0.00549159      -0.00432136
Li       0.68258645       3.74069757      10.85041744        6       0.02603583      -0.00549273      -0.00432029
Li       5.48917948       4.27790102       2.18240080        7      -0.02603660       0.00549144       0.00432291
Li       3.08588297       0.00000000       0.00000000        8      -0.00000019      -0.00000116      -0.00000102
Li       0.00000000       0.00000000       6.51640912        9       0.00000009      -0.00000032       0.00000040
Li       3.08588297       4.00929929       0.00000000       10       0.00000074       0.00000054       0.00000052
Li       0.00000000       4.00929929       6.51640912       11       0.00000022      -0.00000003      -0.00000079
P        0.94051010       2.00464965       1.16601784       12      -0.02067241      -0.00000083       0.02376188
P        5.23125583       6.01394894      11.86680040       13       0.02066672       0.00000228      -0.02375937
P        4.02639307       6.01394894       5.35039128       14      -0.02066772       0.00000085      -0.02375723
P        2.14537286       2.00464965       7.68242696       15       0.02066828      -0.00000060       0.02375609
S        5.08970823       2.00464965       1.30575389       16      -0.25450560      -0.00000070       0.01679027
S        1.08205770       6.01394894      11.72706435       17       0.25450647       0.00000053      -0.01679297
S        2.00382526       6.01394894       5.21065523       18      -0.25450537      -0.00000058      -0.01679113
S        4.16794067       2.00464965       7.82216301       19       0.25450176       0.00000026       0.01679087
S        1.68132889       2.00464965      12.25955363       20       0.10912256       0.00000022      -0.16719642
S        4.49043704       6.01394894       0.77326461       21      -0.10912032       0.00000013       0.16718113
S        4.76721186       6.01394894       7.28967373       22       0.10912078       0.00000003       0.16717994
S        1.40455407       2.00464965       5.74314451       23      -0.10911963       0.00000062      -0.16718078
S        1.67233151       0.29287049       2.00524453       24       0.13957815      -0.21272646       0.08709882
S        4.49943442       7.72572810      11.02757371       25      -0.13957511       0.21272540      -0.08709216
S        4.75821447       7.72572810       4.51116459       26       0.13957533       0.21272552      -0.08709141
S        1.41355146       0.29287049       8.52165365       27      -0.13957553      -0.21272063       0.08709137
S        4.49943442       4.30216979      11.02757371       28      -0.13957785      -0.21272621      -0.08709304
S        1.67233151       3.71642880       2.00524453       29       0.13957852       0.21272671       0.08709885
S        1.41355146       3.71642880       8.52165365       30      -0.13957593       0.21272078       0.08709028
S        4.75821447       4.30216979       4.51116459       31       0.13957645      -0.21272521      -0.08709316
