4
Lattice="3.128588 0.0 0.0 -1.5642939988088433 2.709436998432005 0.0 0.0 0.0 5.016955" Properties=species:S:1:pos:R:3:spacegroup_kinds:I:1:forces:R:3 spacegroup="P 1" unit_cell=conventional occupancy="_JSON {\"0\": {\"Al\": 1}, \"1\": {\"Al\": 1}, \"2\": {\"N\": 1}, \"3\": {\"N\": 1}}" energy=-29.673717498779297 free_energy=-29.673717498779297 stress="-0.0022253640927374363 -1.3654272379426402e-06 -1.1536057442640413e-08 -1.3654272379426402e-06 -0.0022274593356996775 -4.5637062129344486e-08 -1.1536057442640413e-08 -4.5637062129344486e-08 -0.005453732330352068" pbc="T T T"
Al       1.56429556       0.90314476       2.50490041        0      -0.00003538       0.00002049       0.00553187
Al      -0.00000156       1.80629224       5.01337791        1       0.00003451      -0.00002094       0.00552464
N        1.56429556       0.90314476       4.41849749        2      -0.00003600       0.00002143      -0.00553121
N       -0.00000156       1.80629224       1.91001999        3       0.00003687      -0.00002097      -0.00552478
