32
Lattice="6.17176593 0.0 0.0 0.0 8.01859859 0.0 0.0 0.0 13.03281824" Properties=species:S:1:pos:R:3:spacegroup_kinds:I:1:forces:R:3 spacegroup="P 1" unit_cell=conventional occupancy="_JSON {\"0\": {\"Li\": 1}, \"1\": {\"Li\": 1}, \"2\": {\"Li\": 1}, \"3\": {\"Li\": 1}, \"4\": {\"Li\": 1}, \"5\": {\"Li\": 1}, \"6\": {\"Li\": 1}, \"7\": {\"Li\": 1}, \"8\": {\"Li\": 1}, \"9\": {\"Li\": 1}, \"10\": {\"Li\": 1}, \"11\": {\"Li\": 1}, \"12\": {\"P\": 1}, \"13\": {\"P\": 1}, \"14\": {\"P\": 1}, \"15\": {\"P\": 1}, \"16\": {\"S\": 1}, \"17\": {\"S\": 1}, \"18\": {\"S\": 1}, \"19\": {\"S\": 1}, \"20\": {\"S\": 1}, \"21\": {\"S\": 1}, \"22\": {\"S\": 1}, \"23\": {\"S\": 1}, \"24\": {\"S\": 1}, \"25\": {\"S\": 1}, \"26\": {\"S\": 1}, \"27\": {\"S\": 1}, \"28\": {\"S\": 1}, \"29\": {\"S\": 1}, \"30\": {\"S\": 1}, \"31\": {\"S\": 1}}" energy=-140.3463134765625 free_energy=-140.3463134765625 stress="-0.0028886371292173862 -6.934425478277717e-09 4.903673911371698e-09 -6.934425478277717e-09 -0.0040722438134253025 8.023469888485124e-09 4.903673911371698e-09 8.023469888485124e-09 -0.0025935997255146503" pbc="T T T"
Li       2.40166816       0.26892250       4.33377961        0      -0.01548977       0.00236022       0.00063503
Li       3.77009791       7.74967599       8.69903847        1       0.01548894      -0.00236113      -0.00063175
Li       5.48755105       7.74967599       2.18262942        2      -0.01549340      -0.00236062      -0.00063188
Li       0.68421480       0.26892248      10.85018871        3       0.01549113       0.00236075       0.00063200
Li       3.77009790       4.27822186       8.69903840        4       0.01548797       0.00235868      -0.00063342
Li       2.40166816       3.74037677       4.33377959        5      -0.01548981      -0.00236012       0.00063334
Li       0.68421483       3.74037676      10.85018868        6       0.01549112      -0.00236112       0.00063257
Li       5.48755101       4.27822193       2.18262937        7      -0.01549193       0.00236005      -0.00062954
Li       3.08588289      -0.00000012       0.00000012        8      -0.00000092       0.00000043       0.00000029
Li      -0.00000001      -0.00000002       6.51640925        9       0.00000032       0.00000185       0.00000020
Li       3.08588300       4.00929942       0.00000017       10      -0.00000110      -0.00000210       0.00000071
Li      -0.00000000       4.00929925       6.51640919       11       0.00000081       0.00000054      -0.00000007
P        0.93932960       2.00464934       1.16793472       12      -0.00066744       0.00001169       0.03303358
P        5.23243630       6.01394886      11.86488428       13       0.00066460       0.00000129      -0.03305953
P        4.02521223       6.01394897       5.34847528       14      -0.00065215       0.00000209      -0.03306259
P        2.14655385       2.00464965       7.68434321       15       0.00065342      -0.00000044       0.03305168
S        5.07612357       2.00464966       1.30682511       16       0.00280187       0.00000043       0.01274899
S        1.09564238       6.01394885      11.72599298       17      -0.00280222      -0.00000131      -0.01274690
S        1.99024100       6.01394893       5.20958388       18       0.00279253       0.00000147      -0.01274364
S        4.18152500       2.00464965       7.82323426       19      -0.00279157      -0.00000115       0.01274665
S        1.68772171       2.00464969      12.25093565       20       0.03397082      -0.00000062       0.02524820
S        4.48404412       6.01394890       0.78188256       21      -0.03397317       0.00000029      -0.02523724
S        4.77360471       6.01394893       7.29829157       22       0.03397216       0.00000066      -0.02523604
S        1.39816134       2.00464968       5.73452690       23      -0.03397375      -0.00000032       0.02523959
S        1.68016697       0.28147985       2.00960379       24       0.02273579      -0.00259623      -0.01691843
S        4.49159899       7.73711934      11.02321404       25      -0.02272902       0.00258563       0.01692391
S        4.76604992       7.73711927       4.50680507       26       0.02272860       0.00258024       0.01692784
S        1.40571576       0.28147959       8.52601308       27      -0.02272753      -0.00258569      -0.01692776
S        4.49159897       4.29077881      11.02321425       28      -0.02272868      -0.00258473       0.01692449
S        1.68016712       3.72781975       2.00960391       29       0.02273064       0.00258524      -0.01692237
S        1.40571580       3.72781972       8.52601309       30      -0.02272762       0.00258632      -0.01692693
S        4.76604993       4.29077861       4.50680500       31       0.02272946      -0.00258213       0.01692899
