32
Lattice="6.17176593 0.0 0.0 0.0 8.01859859 0.0 0.0 0.0 13.03281824" Properties=species:S:1:pos:R:3:spacegroup_kinds:I:1:forces:R:3 spacegroup="P 1" unit_cell=conventional occupancy="_JSON {\"0\": {\"Li\": 1}, \"1\": {\"Li\": 1}, \"2\": {\"Li\": 1}, \"3\": {\"Li\": 1}, \"4\": {\"Li\": 1}, \"5\": {\"Li\": 1}, \"6\": {\"Li\": 1}, \"7\": {\"Li\": 1}, \"8\": {\"Li\": 1}, \"9\": {\"Li\": 1}, \"10\": {\"Li\": 1}, \"11\": {\"Li\": 1}, \"12\": {\"P\": 1}, \"13\": {\"P\": 1}, \"14\": {\"P\": 1}, \"15\": {\"P\": 1}, \"16\": {\"S\": 1}, \"17\": {\"S\": 1}, \"18\": {\"S\": 1}, \"19\": {\"S\": 1}, \"20\": {\"S\": 1}, \"21\": {\"S\": 1}, \"22\": {\"S\": 1}, \"23\": {\"S\": 1}, \"24\": {\"S\": 1}, \"25\": {\"S\": 1}, \"26\": {\"S\": 1}, \"27\": {\"S\": 1}, \"28\": {\"S\": 1}, \"29\": {\"S\": 1}, \"30\": {\"S\": 1}, \"31\": {\"S\": 1}}" energy=-140.3463134765625 free_energy=-140.3463134765625 stress="-0.0028886180371046066 1.387058023993859e-08 -1.6495750543299437e-08 1.387058023993859e-08 -0.0040722438134253025 3.56122207278986e-08 -1.6495750543299437e-08 3.56122207278986e-08 -0.002593586454167962" pbc="T T T"
Li       2.40166816       0.26892252       4.33377962        0      -0.01548966       0.00236060       0.00063549
Li       3.77009793       7.74967599       8.69903847        1       0.01548897      -0.00236067      -0.00063150
Li       5.48755105       7.74967602       2.18262942        2      -0.01549272      -0.00235984      -0.00063330
Li       0.68421478       0.26892247      10.85018871        3       0.01549084       0.00236106       0.00063223
Li       3.77009791       4.27822189       8.69903841        4       0.01548829       0.00235815      -0.00063298
Li       2.40166815       3.74037679       4.33377962        5      -0.01548930      -0.00235863       0.00063431
Li       0.68421482       3.74037684      10.85018869        6       0.01549154      -0.00236051       0.00063226
Li       5.48755104       4.27822184       2.18262937        7      -0.01549268       0.00236062      -0.00063241
Li       3.08588293      -0.00000015       0.00000017        8      -0.00000120       0.00000163      -0.00000131
Li       0.00000001      -0.00000004       6.51640917        9       0.00000118       0.00000182      -0.00000114
Li       3.08588294       4.00929944       0.00000009       10      -0.00000168      -0.00000131      -0.00000122
Li      -0.00000002       4.00929920       6.51640915       11       0.00000068      -0.00000147      -0.00000099
P        0.93932953       2.00464932       1.16793469       12      -0.00066832       0.00001379       0.03303153
P        5.23243630       6.01394880      11.86488426       13       0.00067163       0.00000064      -0.03306070
P        4.02521222       6.01394893       5.34847527       14      -0.00065182       0.00000226      -0.03306206
P        2.14655382       2.00464972       7.68434325       15       0.00065411      -0.00000047       0.03305370
S        5.07612373       2.00464969       1.30682517       16       0.00280108      -0.00000070       0.01274804
S        1.09564242       6.01394884      11.72599297       17      -0.00280724      -0.00000026      -0.01274760
S        1.99024097       6.01394897       5.20958388       18       0.00279289       0.00000106      -0.01274332
S        4.18152503       2.00464967       7.82323420       19      -0.00279370      -0.00000118       0.01274784
S        1.68772171       2.00464971      12.25093571       20       0.03397112      -0.00000073       0.02524849
S        4.48404411       6.01394886       0.78188258       21      -0.03397394       0.00000023      -0.02523450
S        4.77360472       6.01394891       7.29829158       22       0.03397229       0.00000061      -0.02523704
S        1.39816135       2.00464970       5.73452691       23      -0.03397282      -0.00000009       0.02524154
S        1.68016699       0.28147994       2.00960381       24       0.02273763      -0.00260236      -0.01691504
S        4.49159894       7.73711926      11.02321408       25      -0.02273035       0.00258679       0.01692521
S        4.76604990       7.73711925       4.50680502       26       0.02272848       0.00258142       0.01692779
S        1.40571578       0.28147963       8.52601307       27      -0.02272697      -0.00258490      -0.01692771
S        4.49159893       4.29077883      11.02321427       28      -0.02272968      -0.00258754       0.01692487
S        1.68016707       3.72781969       2.00960383       29       0.02272962       0.00258746      -0.01692121
S        1.40571578       3.72781973       8.52601310       30      -0.02272720       0.00258521      -0.01692777
S        4.76604994       4.29077855       4.50680506       31       0.02272876      -0.00258258       0.01692853
