32
Lattice="6.17176593 0.0 0.0 0.0 8.01859859 0.0 0.0 0.0 13.03281824" Properties=species:S:1:pos:R:3:spacegroup_kinds:I:1:momenta:R:3:forces:R:3 spacegroup="P 1" unit_cell=conventional occupancy="_JSON {\"0\": {\"Li\": 1}, \"1\": {\"Li\": 1}, \"2\": {\"Li\": 1}, \"3\": {\"Li\": 1}, \"4\": {\"Li\": 1}, \"5\": {\"Li\": 1}, \"6\": {\"Li\": 1}, \"7\": {\"Li\": 1}, \"8\": {\"Li\": 1}, \"9\": {\"Li\": 1}, \"10\": {\"Li\": 1}, \"11\": {\"Li\": 1}, \"12\": {\"P\": 1}, \"13\": {\"P\": 1}, \"14\": {\"P\": 1}, \"15\": {\"P\": 1}, \"16\": {\"S\": 1}, \"17\": {\"S\": 1}, \"18\": {\"S\": 1}, \"19\": {\"S\": 1}, \"20\": {\"S\": 1}, \"21\": {\"S\": 1}, \"22\": {\"S\": 1}, \"23\": {\"S\": 1}, \"24\": {\"S\": 1}, \"25\": {\"S\": 1}, \"26\": {\"S\": 1}, \"27\": {\"S\": 1}, \"28\": {\"S\": 1}, \"29\": {\"S\": 1}, \"30\": {\"S\": 1}, \"31\": {\"S\": 1}}" energy=-140.21334838867188 free_energy=-140.21334838867188 stress="-0.0011642099125310779 -0.00013249907351564616 2.041374500549864e-05 -0.00013249907351564616 -0.0013686665333807468 -0.0015091567765921354 2.041374500549864e-05 -0.0015091567765921354 -0.0021891407668590546" pbc="T T T"
Li       2.30692044       0.32610873       4.31836934        0      -0.10607951       0.09156236       0.11213100       0.19066447      -0.18440625       0.02669499
Li       3.66921082       7.71413996       8.68447496        1      -0.18578500      -0.10358071      -0.08025220       0.14607759      -0.06227332       0.03994590
Li       5.48095409       7.73791304       2.20278501        2      -0.02454518       0.06616016      -0.17207491       0.01202410       0.02825751      -0.08465703
Li       0.66064891       0.29745450      10.78326311        3      -0.01787349      -0.20514258       0.16131017       0.00714672      -0.01432716       0.13766485
Li       3.75603131       4.26413465       8.72708859        4      -0.13991298      -0.01805313       0.03687046       0.09809436      -0.04368417      -0.02705740
Li       2.39410176       3.88284688       4.35652705        5       0.08257933       0.16874363       0.04502018      -0.06416607      -0.33780897      -0.10043815
Li       0.64791366       3.71177328      10.93959574        6      -0.20224433       0.08436344      -0.06674240      -0.04749174       0.12931786      -0.19411951
Li       5.42953472       4.30688007       2.18793359        7       0.20522307       0.26121311       0.06695524       0.08781988      -0.08423977       0.00698378
Li       3.04461470      -0.02439329      -0.00707983        8      -0.09738357      -0.11546863      -0.30500554       0.03154071      -0.00290414      -0.07300292
Li      -0.02383262       0.04861419       6.58625948        9      -0.14689543       0.08741277      -0.10485787      -0.15770617      -0.04899573      -0.15342374
Li       3.05856280       4.03759081       0.00765771       10       0.00388728       0.01841899       0.10194800       0.02840267       0.01417537      -0.05220079
Li       0.00493285       4.00440359       6.56810141       11       0.12557661       0.02540840       0.17094300      -0.03480343       0.00926672      -0.03125110
P        0.93374485       2.01742339       1.15042490       12       0.69366248       0.08803027      -0.08174448       0.19811742      -0.02642705       0.04347720
P        5.26477599       6.01585046      11.85037036       13       0.89484745      -0.05936254      -0.26778724      -0.37654820       0.17561562      -0.04545880
P        4.03665537       6.00368356       5.35146879       14       0.07881336      -0.32367599      -0.09793884       0.16886415       0.21222061       0.18043345
P        2.15731015       2.01243121       7.68091913       15       0.18901798      -0.09480979       0.43697831       0.00577677      -0.22831348       0.13592981
S        5.08377911       2.00694727       1.25779179       16       0.44778314      -0.49967807      -0.59959834      -0.11160472      -0.03053763       0.13495931
S        1.12830036       6.00016003      11.72521790       17      -0.12065835      -0.04829630       0.07536742      -0.15545915       0.12009115      -0.06472500
S        2.00119609       6.01013105       5.25505661       18      -0.11748141       0.03288108       0.08833179      -0.04471114       0.22689606      -0.03095336
S        4.20377636       1.92544055       7.83145199       19       0.88469739      -0.62969460       0.41967489      -0.28931376       0.23664774       0.04210652
S        1.66699393       2.06144787      12.22362755       20      -0.33260805       0.72940692      -0.38533694       0.16196559      -0.33869606       0.17274457
S        4.47214986       6.01442182       0.75560299       21      -0.39997672       0.10963177      -0.34944171       0.07577217       0.07166056       0.06349882
S        4.76584538       5.98763138       7.32703384       22      -0.25101624      -0.37878085       0.38403292       0.02157097       0.08164239      -0.25702792
S        1.41583597       2.00707759       5.72776063       23       0.46336171       0.36245695      -0.18596874      -0.05439654       0.22559941       0.17507046
S        1.70488414       0.29016795       2.00060783       24      -0.14674374       0.53321592       0.00634480      -0.15834592       0.15151429      -0.16988447
S        4.47233024       7.74495948      11.01455103       25      -0.13080510       0.22194605      -0.24064599       0.22149122      -0.23487717       0.06497344
S        4.77160409       7.73899557       4.49469861       26      -0.17745065       0.12951586      -0.28258145      -0.14441626      -0.20821592       0.23456156
S        1.37055041       0.26912318       8.51538926       27      -0.64880617      -0.25480914      -0.04726816       0.09871137       0.30822521      -0.11446272
S        4.47401343       4.29645270      11.03877208       28      -0.27263270       0.31079649       0.31568192       0.10201553       0.01462163      -0.04339623
S        1.68776730       3.73478386       1.99388474       29      -0.20732439       0.00618122      -0.11223746      -0.09219713       0.01751269       0.09967245
S        1.42093942       3.73589398       8.55145367       30      -0.45395285      -0.20863048       0.71805931       0.06804781      -0.23879112      -0.05521074
S        4.78071757       4.26663794       4.53982446       31       0.11072606      -0.38736258       0.23983289       0.00705662       0.06123305      -0.06144695
