32
Lattice="6.17176593 0.0 0.0 0.0 8.01859859 0.0 0.0 0.0 13.03281824" Properties=species:S:1:pos:R:3:spacegroup_kinds:I:1:momenta:R:3:forces:R:3 spacegroup="P 1" unit_cell=conventional occupancy="_JSON {\"0\": {\"Li\": 1}, \"1\": {\"Li\": 1}, \"2\": {\"Li\": 1}, \"3\": {\"Li\": 1}, \"4\": {\"Li\": 1}, \"5\": {\"Li\": 1}, \"6\": {\"Li\": 1}, \"7\": {\"Li\": 1}, \"8\": {\"Li\": 1}, \"9\": {\"Li\": 1}, \"10\": {\"Li\": 1}, \"11\": {\"Li\": 1}, \"12\": {\"P\": 1}, \"13\": {\"P\": 1}, \"14\": {\"P\": 1}, \"15\": {\"P\": 1}, \"16\": {\"S\": 1}, \"17\": {\"S\": 1}, \"18\": {\"S\": 1}, \"19\": {\"S\": 1}, \"20\": {\"S\": 1}, \"21\": {\"S\": 1}, \"22\": {\"S\": 1}, \"23\": {\"S\": 1}, \"24\": {\"S\": 1}, \"25\": {\"S\": 1}, \"26\": {\"S\": 1}, \"27\": {\"S\": 1}, \"28\": {\"S\": 1}, \"29\": {\"S\": 1}, \"30\": {\"S\": 1}, \"31\": {\"S\": 1}}" energy=-140.31871032714844 free_energy=-140.31871032714844 stress="-0.007170633412897587 -2.1997217380942402e-09 3.993981589900386e-09 -2.1997217380942402e-09 -0.008259405381977558 -8.602722090245152e-09 3.993981589900386e-09 -8.602722090245152e-09 -0.005266305524855852" pbc="T T T"
Li       2.40329652       0.26860172       4.33400832        0       0.00000000       0.00000000       0.00000000      -0.02603511       0.00549075      -0.00432152
Li       3.76846941       7.74999687       8.69880992        1       0.00000000       0.00000000       0.00000000       0.02603666      -0.00549228       0.00432266
Li       5.48917948       7.74999687       2.18240080        2       0.00000000       0.00000000       0.00000000      -0.02603605      -0.00549042       0.00432263
Li       0.68258645       0.26860172      10.85041744        3       0.00000000       0.00000000       0.00000000       0.02603561       0.00549171      -0.00431921
Li       3.76846941       4.27790102       8.69880992        4       0.00000000       0.00000000       0.00000000       0.02603594       0.00549150       0.00432239
Li       2.40329652       3.74069757       4.33400832        5       0.00000000       0.00000000       0.00000000      -0.02603531      -0.00549057      -0.00432140
Li       0.68258645       3.74069757      10.85041744        6       0.00000000       0.00000000       0.00000000       0.02603573      -0.00549223      -0.00431938
Li       5.48917948       4.27790102       2.18240080        7       0.00000000       0.00000000       0.00000000      -0.02603622       0.00549064       0.00432282
Li       3.08588297       0.00000000       0.00000000        8       0.00000000       0.00000000       0.00000000      -0.00000079      -0.00000170      -0.00000010
Li       0.00000000       0.00000000       6.51640912        9       0.00000000       0.00000000       0.00000000       0.00000042      -0.00000043      -0.00000020
Li       3.08588297       4.00929929       0.00000000       10       0.00000000       0.00000000       0.00000000      -0.00000053       0.00000068      -0.00000122
Li       0.00000000       4.00929929       6.51640912       11       0.00000000       0.00000000       0.00000000       0.00000009       0.00000119       0.00000119
P        0.94051010       2.00464965       1.16601784       12       0.00000000       0.00000000       0.00000000      -0.02067209      -0.00000181       0.02375969
P        5.23125583       6.01394894      11.86680040       13       0.00000000       0.00000000       0.00000000       0.02066681       0.00000102      -0.02375861
P        4.02639307       6.01394894       5.35039128       14       0.00000000       0.00000000       0.00000000      -0.02066671       0.00000016      -0.02375635
P        2.14537286       2.00464965       7.68242696       15       0.00000000       0.00000000       0.00000000       0.02066868      -0.00000032       0.02375731
S        5.08970823       2.00464965       1.30575389       16       0.00000000       0.00000000       0.00000000      -0.25450623      -0.00000049       0.01679016
S        1.08205770       6.01394894      11.72706435       17       0.00000000       0.00000000       0.00000000       0.25450796       0.00000099      -0.01679069
S        2.00382526       6.01394894       5.21065523       18       0.00000000       0.00000000       0.00000000      -0.25450620      -0.00000061      -0.01679214
S        4.16794067       2.00464965       7.82216301       19       0.00000000       0.00000000       0.00000000       0.25450033       0.00000044       0.01679005
S        1.68132889       2.00464965      12.25955363       20       0.00000000       0.00000000       0.00000000       0.10912246       0.00000057      -0.16719535
S        4.49043704       6.01394894       0.77326461       21       0.00000000       0.00000000       0.00000000      -0.10912061      -0.00000003       0.16718186
S        4.76721186       6.01394894       7.28967373       22       0.00000000       0.00000000       0.00000000       0.10912041       0.00000032       0.16717835
S        1.40455407       2.00464965       5.74314451       23       0.00000000       0.00000000       0.00000000      -0.10911991       0.00000048      -0.16718154
S        1.67233151       0.29287049       2.00524453       24       0.00000000       0.00000000       0.00000000       0.13957784      -0.21272554       0.08709927
S        4.49943442       7.72572810      11.02757371       25       0.00000000       0.00000000       0.00000000      -0.13957554       0.21272469      -0.08709335
S        4.75821447       7.72572810       4.51116459       26       0.00000000       0.00000000       0.00000000       0.13957518       0.21272421      -0.08709197
S        1.41355146       0.29287049       8.52165365       27       0.00000000       0.00000000       0.00000000      -0.13957608      -0.21272103       0.08709095
S        4.49943442       4.30216979      11.02757371       28       0.00000000       0.00000000       0.00000000      -0.13957641      -0.21272470      -0.08709447
S        1.67233151       3.71642880       2.00524453       29       0.00000000       0.00000000       0.00000000       0.13957870       0.21272656       0.08709830
S        1.41355146       3.71642880       8.52165365       30       0.00000000       0.00000000       0.00000000      -0.13957584       0.21272224       0.08709191
S        4.75821447       4.30216979       4.51116459       31       0.00000000       0.00000000       0.00000000       0.13957670      -0.21272615      -0.08709246
32
Lattice="6.17176593 0.0 0.0 0.0 8.01859859 0.0 0.0 0.0 13.03281824" Properties=species:S:1:pos:R:3:spacegroup_kinds:I:1:momenta:R:3:forces:R:3 spacegroup="P 1" unit_cell=conventional occupancy="_JSON {\"0\": {\"Li\": 1}, \"1\": {\"Li\": 1}, \"2\": {\"Li\": 1}, \"3\": {\"Li\": 1}, \"4\": {\"Li\": 1}, \"5\": {\"Li\": 1}, \"6\": {\"Li\": 1}, \"7\": {\"Li\": 1}, \"8\": {\"Li\": 1}, \"9\": {\"Li\": 1}, \"10\": {\"Li\": 1}, \"11\": {\"Li\": 1}, \"12\": {\"P\": 1}, \"13\": {\"P\": 1}, \"14\": {\"P\": 1}, \"15\": {\"P\": 1}, \"16\": {\"S\": 1}, \"17\": {\"S\": 1}, \"18\": {\"S\": 1}, \"19\": {\"S\": 1}, \"20\": {\"S\": 1}, \"21\": {\"S\": 1}, \"22\": {\"S\": 1}, \"23\": {\"S\": 1}, \"24\": {\"S\": 1}, \"25\": {\"S\": 1}, \"26\": {\"S\": 1}, \"27\": {\"S\": 1}, \"28\": {\"S\": 1}, \"29\": {\"S\": 1}, \"30\": {\"S\": 1}, \"31\": {\"S\": 1}}" energy=-140.32032775878906 free_energy=-140.32032775878906 stress="-0.006932977121323347 1.483869618823519e-05 -3.6759931390406564e-05 1.483869618823519e-05 -0.008115819655358791 -1.932193299580831e-06 -3.6759931390406564e-05 -1.932193299580831e-06 -0.005290950182825327" pbc="T T T"
Li       2.40324911       0.26783201       4.33170789        0      -0.00059814      -0.01428235      -0.08488937      -0.02651196       0.00491006      -0.00023997
Li       3.76699406       7.74820141       8.69940434        1      -0.15450223      -0.05851746       0.05697584       0.02685928      -0.00216475       0.00184829
Li       5.48798725       7.74912471       2.18297762        2      -0.06983475       0.00433581       0.04699802      -0.02133925      -0.00268235       0.00391231
Li       0.68310338       0.26936499      10.85007362        3       0.00284260       0.01619978      -0.03526555       0.02505177       0.00272725      -0.00231241
Li       3.76962856       4.27605046       8.70009977        4       0.07502516      -0.06929118       0.03048419       0.02408571       0.00686390       0.00241280
Li       2.40223777       3.73949909       4.33240375        5      -0.06987506      -0.01448408      -0.05433747      -0.02030255      -0.00142344      -0.00176668
Li       0.68144540       3.73925684      10.85315385        6      -0.06947237      -0.05923728       0.14156455       0.02619875      -0.00261172      -0.01184342
Li       5.48550539       4.27694231       2.18056094        7      -0.17573838      -0.04160444      -0.03588445      -0.02010395       0.00641927       0.00710396
Li       3.08601674       0.00079269       0.00157786        8       0.04298359       0.00469337       0.06993859       0.00228302      -0.00142352      -0.00304596
Li      -0.00003393      -0.00064213       6.51789612        9       0.00070219       0.01778295       0.04482544      -0.00240567       0.00060599      -0.00436313
Li       3.08312081       4.00944107      -0.00120330       10      -0.17287691       0.01351953      -0.08367971       0.00234926       0.00448992       0.00022168
Li      -0.00046718       4.00996334       6.51610145       11      -0.05156202       0.04489352       0.03305125       0.00278159      -0.00181352       0.00192949
P        0.94055275       2.00492834       1.16596872       12      -0.12158374       0.04254454       0.02840652      -0.02695144      -0.00521525       0.03812782
P        5.23113382       6.01443154      11.86628041       13       0.03496248       0.05960982      -0.01982967       0.03560935      -0.01579028      -0.01590392
P        4.02664735       6.01422086       5.35114042       14       0.24592060       0.09528603       0.13384549      -0.01858027       0.00285230      -0.03589889
P        2.14460462       2.00405201       7.68138841       15      -0.14898984      -0.21087602      -0.31335057       0.03476450       0.01658668       0.04283418
S        5.08905478       2.00467479       1.30586759       16      -0.15024197       0.16073031       0.12994288      -0.24145649      -0.00324465       0.01611293
S        1.08358389       6.01331715      11.72665292       17       0.45537648      -0.04991575      -0.06756799       0.22550292       0.00283031      -0.01727842
S        2.00433276       6.01336368       5.21107163       18       0.03327775      -0.08583088       0.06845723      -0.25744453       0.00082463      -0.01688909
S        4.16828049       2.00462449       7.82248598       19       0.16230186      -0.07354871      -0.02146798       0.23647818      -0.00706600       0.01600596
S        1.68138012       2.00518492      12.26027894       20       0.07920020       0.15312389       0.07310738       0.11040811      -0.00439063      -0.17629984
S        4.49011715       6.01517355       0.77331028       21      -0.16670955       0.21827699       0.03144179      -0.10644376      -0.00337078       0.15747726
S        4.76761843       6.01369796       7.28982387       22       0.14333397       0.05683486       0.01454408       0.10927686       0.00197182       0.17348149
S        1.40541799       2.00416040       5.74235552       23       0.10198696      -0.11757821      -0.12914147      -0.11409539      -0.00278599      -0.16886878
S        1.67323686       0.29261589       2.00507001       24       0.17138856      -0.02661237       0.03277580       0.12852918      -0.20360455       0.08239929
S        4.49905732       7.72559159      11.02727443       25      -0.12787037      -0.06848488       0.02038506      -0.13698089       0.21579558      -0.08897689
S        4.75779301       7.72639161       4.51074422       26       0.01109212       0.02625126      -0.09294705       0.13913265       0.20699263      -0.07834534
S        1.41244695       0.29241119       8.52202985       27      -0.29951285      -0.06601687      -0.04949839      -0.13478740      -0.20466413       0.08145811
S        4.49853699       4.30121469      11.02840777       28      -0.23853468      -0.21022905       0.11113106      -0.13201204      -0.19928695      -0.08217756
S        1.67278566       3.71694875       2.00481453       29       0.00463294       0.07869655      -0.01481885       0.13001083       0.20966971       0.08695956
S        1.41357073       3.71739353       8.52138059       30       0.07954028       0.14964067      -0.06163608      -0.13491529       0.19282976       0.08184138
S        4.75952159       4.30304285       4.51153374       31       0.37333515       0.02408968      -0.00356057       0.13500890      -0.21483132      -0.08991617
32
Lattice="6.17176593 0.0 0.0 0.0 8.01859859 0.0 0.0 0.0 13.03281824" Properties=species:S:1:pos:R:3:spacegroup_kinds:I:1:momenta:R:3:forces:R:3 spacegroup="P 1" unit_cell=conventional occupancy="_JSON {\"0\": {\"Li\": 1}, \"1\": {\"Li\": 1}, \"2\": {\"Li\": 1}, \"3\": {\"Li\": 1}, \"4\": {\"Li\": 1}, \"5\": {\"Li\": 1}, \"6\": {\"Li\": 1}, \"7\": {\"Li\": 1}, \"8\": {\"Li\": 1}, \"9\": {\"Li\": 1}, \"10\": {\"Li\": 1}, \"11\": {\"Li\": 1}, \"12\": {\"P\": 1}, \"13\": {\"P\": 1}, \"14\": {\"P\": 1}, \"15\": {\"P\": 1}, \"16\": {\"S\": 1}, \"17\": {\"S\": 1}, \"18\": {\"S\": 1}, \"19\": {\"S\": 1}, \"20\": {\"S\": 1}, \"21\": {\"S\": 1}, \"22\": {\"S\": 1}, \"23\": {\"S\": 1}, \"24\": {\"S\": 1}, \"25\": {\"S\": 1}, \"26\": {\"S\": 1}, \"27\": {\"S\": 1}, \"28\": {\"S\": 1}, \"29\": {\"S\": 1}, \"30\": {\"S\": 1}, \"31\": {\"S\": 1}}" energy=-140.32272338867188 free_energy=-140.32272338867188 stress="-0.006410991307348013 3.646239520094241e-06 -8.304841321660206e-05 3.646239520094241e-06 -0.007861851714551449 7.069284038152546e-05 -8.304841321660206e-05 7.069284038152546e-05 -0.005355812143534422" pbc="T T T"
Li       2.40494058       0.26829651       4.32988924        0       0.01213267      -0.02299155      -0.08440828      -0.03059234       0.00114569       0.00450154
Li       3.76036857       7.74684188       8.70045630        1      -0.24384854       0.00386805      -0.00004348       0.03820952      -0.00054714      -0.00271684
Li       5.48689208       7.74861591       2.18750014        2       0.00768146      -0.00991930       0.19461613      -0.01693647       0.00034812      -0.00500139
Li       0.68230026       0.27200941      10.84527884        3      -0.06014636       0.11323351      -0.10636197       0.02497484      -0.00116324       0.00882097
Li       3.77370210       4.27735822       8.70132579        4       0.14166189       0.08072853       0.08950747       0.01630099      -0.00318844       0.00040589
Li       2.39820083       3.74055866       4.33124859        5      -0.15533505       0.06885978      -0.03621433      -0.00888965       0.00025956       0.00006765
Li       0.68159207       3.73810318      10.85840220        6       0.05606448      -0.07761491       0.11562097       0.02156551       0.00072063      -0.02506900
Li       5.47946162       4.27700348       2.17926460        7      -0.19540001      -0.01379528       0.00121721      -0.00861088       0.00477841       0.00879573
Li       3.08634495       0.00160148       0.00373600        8      -0.01332984      -0.00428802       0.05861050       0.00539499      -0.00185540      -0.00774756
Li      -0.00019870       0.00212364       6.52172781        9      -0.00274875       0.07852586       0.12840745      -0.01425460      -0.00266925      -0.01419780
Li       3.07665224       4.01104489      -0.00244907       10      -0.16995342       0.02971605      -0.02296781       0.00896711       0.01135961      -0.00241733
Li      -0.00044236       4.01275971       6.51915523       11      -0.01622322       0.13682625       0.11605056       0.00416130      -0.00435164      -0.00033884
P        0.93976223       2.00470593       1.16557659       12      -0.15680275      -0.00868558      -0.08915576      -0.03298985       0.00017555       0.05278168
P        5.23153678       6.01516458      11.86637015       13       0.09707291       0.17923502      -0.04374969       0.03775777      -0.04569190      -0.02426122
P        4.02868722       6.01476505       5.35167516       14       0.31732682       0.06854544       0.04661941      -0.03595672      -0.02385960      -0.04884264
P        2.14207758       2.00204226       7.67915331       15      -0.43580409      -0.21323307      -0.29703152       0.10467543       0.06330136       0.07896453
S        5.08710428       2.00614198       1.30633397       16      -0.32515863       0.13484681       0.04396125      -0.21406169      -0.01748065       0.01366858
S        1.08593131       6.01283136      11.72561534       17       0.22123823      -0.07664892      -0.15484157       0.18720342       0.01159224      -0.01677798
S        2.00498285       6.01209489       5.21274996       18       0.15749678      -0.16111287       0.25215858      -0.23615783       0.00810577      -0.01818905
S        4.16935910       2.00374906       7.82188768       19      -0.04285912      -0.09514012      -0.02606256       0.18394722      -0.01566401       0.01466925
S        1.68285869       2.00672883      12.26074716       20       0.22268929       0.32901197       0.05100932       0.10227783      -0.01858327      -0.17871371
S        4.48926866       6.01601392       0.77352738       21      -0.10483914       0.05161458       0.03347554      -0.09972429       0.00063050       0.14702559
S        4.76880482       6.01416635       7.29011224       22       0.12946325       0.11939504      -0.07309509       0.11005361       0.00962006       0.17737730
S        1.40523457       2.00254677       5.74244299       23      -0.04834333      -0.43483554       0.17717913      -0.12500311      -0.00180086      -0.19487682
S        1.67472612       0.29256458       2.00528500       24       0.27853242       0.08888205       0.08765270       0.11063910      -0.19292992       0.07512617
S        4.49799449       7.72549464      11.02625583       25      -0.09275863       0.10545081      -0.19328142      -0.12711097       0.20920156      -0.08341692
S        4.75778979       7.72712862       4.51060281       26       0.03740769       0.16261199      -0.05948112       0.14263119       0.20819633      -0.06949821
S        1.41022778       0.29190851       8.52105351       27      -0.18500241      -0.03075942      -0.26705084      -0.13887249      -0.21449462       0.08680578
S        4.49687240       4.29928819      11.02937959       28      -0.17919360      -0.39595314       0.12634949      -0.11120612      -0.16478914      -0.06558819
S        1.67279420       3.71731193       2.00401726       29      -0.01454856       0.03410286      -0.20128475       0.11557984       0.20409012       0.08827432
S        1.41486235       3.71764078       8.52128520       30       0.32590733      -0.11190574       0.06024005      -0.12999663       0.17149264       0.07990421
S        4.76292065       4.30268233       4.51156806       31       0.43762024      -0.12857113       0.07235441       0.11602382      -0.19594914      -0.07953563
32
Lattice="6.17176593 0.0 0.0 0.0 8.01859859 0.0 0.0 0.0 13.03281824" Properties=species:S:1:pos:R:3:spacegroup_kinds:I:1:momenta:R:3:forces:R:3 spacegroup="P 1" unit_cell=conventional occupancy="_JSON {\"0\": {\"Li\": 1}, \"1\": {\"Li\": 1}, \"2\": {\"Li\": 1}, \"3\": {\"Li\": 1}, \"4\": {\"Li\": 1}, \"5\": {\"Li\": 1}, \"6\": {\"Li\": 1}, \"7\": {\"Li\": 1}, \"8\": {\"Li\": 1}, \"9\": {\"Li\": 1}, \"10\": {\"Li\": 1}, \"11\": {\"Li\": 1}, \"12\": {\"P\": 1}, \"13\": {\"P\": 1}, \"14\": {\"P\": 1}, \"15\": {\"P\": 1}, \"16\": {\"S\": 1}, \"17\": {\"S\": 1}, \"18\": {\"S\": 1}, \"19\": {\"S\": 1}, \"20\": {\"S\": 1}, \"21\": {\"S\": 1}, \"22\": {\"S\": 1}, \"23\": {\"S\": 1}, \"24\": {\"S\": 1}, \"25\": {\"S\": 1}, \"26\": {\"S\": 1}, \"27\": {\"S\": 1}, \"28\": {\"S\": 1}, \"29\": {\"S\": 1}, \"30\": {\"S\": 1}, \"31\": {\"S\": 1}}" energy=-140.32269287109375 free_energy=-140.32269287109375 stress="-0.005875611212104559 1.789258749340661e-05 -0.00013417916488833725 1.789258749340661e-05 -0.007519488222897053 0.0001829923567129299 -0.00013417916488833725 0.0001829923567129299 -0.005572149530053139" pbc="T T T"
Li       2.40483971       0.26985925       4.32432253        0       0.02407870       0.05272463      -0.16698750      -0.02867072      -0.00625290       0.01894682
Li       3.75196554       7.74720070       8.70046052        1      -0.21991819      -0.01317110      -0.03382228       0.05374288      -0.00395254      -0.00598380
Li       5.48835801       7.74836588       2.19322025        2       0.08743953      -0.00440803       0.16814170      -0.01789478       0.00026831      -0.01771142
Li       0.68171810       0.27369629      10.84290346        3      -0.10001888       0.08215789      -0.06903417       0.02571013      -0.00283705       0.01243394
Li       3.77798377       4.27840851       8.70103558        4       0.10719961      -0.02725882      -0.08207631       0.01070036      -0.01379104       0.00515736
Li       2.39345330       3.74315624       4.33078870        5      -0.06171087       0.09246756       0.01156378      -0.00229799      -0.00177241       0.00150833
Li       0.68172501       3.73684329      10.86554683        6      -0.00547731       0.00565782       0.29063915       0.01560501       0.00538786      -0.04273126
Li       5.47254804       4.27699790       2.17907065        7      -0.21504293      -0.06469359       0.01923186       0.00586035       0.00323246       0.00710340
Li       3.08587245       0.00304053       0.00630216        8      -0.03156457       0.07957285       0.10272012       0.01108339      -0.00537440      -0.01271361
Li       0.00003099       0.00564698       6.52831515        9       0.05346431       0.08507775       0.20417935      -0.02967933      -0.00748230      -0.03037743
Li       3.06909200       4.01030175      -0.00298238       10      -0.20826212       0.04371022      -0.02624995       0.02250005       0.02253557      -0.00940259
Li      -0.00365986       4.01688669       6.51891098       11      -0.12457267       0.08563169      -0.03628264       0.01652463      -0.01313950       0.00942841
P        0.93872005       2.00436204       1.16459851       12      -0.12917663      -0.12538727      -0.06577344      -0.03304186       0.02012843       0.07929395
P        5.23142158       6.01783162      11.86643164       13      -0.19656757       0.43975176       0.08021832       0.03355337      -0.11913964      -0.03828517
P        4.03218021       6.01511402       5.35206895       14       0.39486298       0.05600371      -0.01203576      -0.08198498      -0.03416728      -0.08192809
P        2.13912092       2.00020471       7.67687497       15      -0.25383535      -0.24519366      -0.26353759       0.18375045       0.10916492       0.13435312
S        5.08533675       2.00833125       1.30625303       16      -0.15471282       0.30928799      -0.07479407      -0.18924962      -0.03881381       0.01367000
S        1.08819100       6.01269709      11.72406262       17       0.27619574       0.00543326      -0.22231340       0.14196891       0.02451108      -0.01508947
S        2.00585756       6.01163497       5.21478373       18       0.00211654       0.11990126       0.17607483      -0.19936465       0.01467607      -0.02028779
S        4.17005961       2.00168289       7.82222470       19       0.13906922      -0.37310484       0.15759157       0.13903476      -0.01812849       0.00890941
S        1.68428908       2.00830227      12.26150913       20       0.22835840       0.12360559       0.19054907       0.09609830      -0.03754343      -0.18889929
S        4.48787340       6.01550650       0.77359859       21      -0.25529732      -0.13772964      -0.03727952      -0.09086540       0.01717036       0.13777992
S        4.77010160       6.01499155       7.28892382       22       0.33934360       0.10221211      -0.17527399       0.11752556       0.01571908       0.20107564
S        1.40431015       1.99911740       5.74500318       23      -0.12789412      -0.41262862       0.30474624      -0.14123055       0.00991639      -0.25525680
S        1.67742910       0.29310186       2.00560877       24       0.35743650      -0.02631747       0.03683925       0.08802651      -0.18127982       0.06217086
S        4.49580703       7.72672984      11.02540162       25      -0.37639603       0.13055297      -0.18049755      -0.11467218       0.19983895      -0.07916709
S        4.75859472       7.72827118       4.50994315       26       0.19806581       0.06098684      -0.09462041       0.14229837       0.20205253      -0.05576613
S        1.40877493       0.29118339       8.51936724       27      -0.18678419      -0.09619251      -0.12064142      -0.15254353      -0.23186815       0.10876583
S        4.49555626       4.29522172      11.03155738       28      -0.07935326      -0.56549717       0.25082803      -0.08283434      -0.09635589      -0.04526551
S        1.67309104       3.71847140       2.00214886       29       0.09627748       0.23623248      -0.21203287       0.09524807       0.18896125       0.09260273
S        1.41718884       3.71785555       8.52142204       30       0.18908580       0.14366348      -0.11653008      -0.13369238       0.15594307       0.07641016
S        4.76541550       4.30134672       4.51107116       31       0.23359063      -0.16304911      -0.00354034       0.09879137      -0.17760780      -0.07074445
32
Lattice="6.17176593 0.0 0.0 0.0 8.01859859 0.0 0.0 0.0 13.03281824" Properties=species:S:1:pos:R:3:spacegroup_kinds:I:1:momenta:R:3:forces:R:3 spacegroup="P 1" unit_cell=conventional occupancy="_JSON {\"0\": {\"Li\": 1}, \"1\": {\"Li\": 1}, \"2\": {\"Li\": 1}, \"3\": {\"Li\": 1}, \"4\": {\"Li\": 1}, \"5\": {\"Li\": 1}, \"6\": {\"Li\": 1}, \"7\": {\"Li\": 1}, \"8\": {\"Li\": 1}, \"9\": {\"Li\": 1}, \"10\": {\"Li\": 1}, \"11\": {\"Li\": 1}, \"12\": {\"P\": 1}, \"13\": {\"P\": 1}, \"14\": {\"P\": 1}, \"15\": {\"P\": 1}, \"16\": {\"S\": 1}, \"17\": {\"S\": 1}, \"18\": {\"S\": 1}, \"19\": {\"S\": 1}, \"20\": {\"S\": 1}, \"21\": {\"S\": 1}, \"22\": {\"S\": 1}, \"23\": {\"S\": 1}, \"24\": {\"S\": 1}, \"25\": {\"S\": 1}, \"26\": {\"S\": 1}, \"27\": {\"S\": 1}, \"28\": {\"S\": 1}, \"29\": {\"S\": 1}, \"30\": {\"S\": 1}, \"31\": {\"S\": 1}}" energy=-140.32135009765625 free_energy=-140.32135009765625 stress="-0.005215255077928305 -9.512988981441595e-06 -0.00015335067291744053 -9.512988981441595e-06 -0.007008417975157499 0.0002540963760111481 -0.00015335067291744053 0.0002540963760111481 -0.005733930971473455" pbc="T T T"
Li       2.40273058       0.27342918       4.32083321        0      -0.08106994       0.10042201      -0.10756153      -0.02043893      -0.01564389       0.02762699
Li       3.74489215       7.74861917       8.69987935        1      -0.15081608       0.11853702      -0.05037422       0.06728858      -0.01215458      -0.00847125
Li       5.48924544       7.74771293       2.20063115        2      -0.05070271      -0.01629857       0.20128836      -0.01739940       0.00075263      -0.03692062
Li       0.67858915       0.27719213      10.84000269        3      -0.07066254       0.09408566      -0.13546531       0.03073959      -0.00927916       0.01854610
Li       3.78135643       4.27771903       8.70107020        4       0.07039722      -0.03299753       0.05634648       0.00770257      -0.02029191       0.01034838
Li       2.39199815       3.74748953       4.33173520        5      -0.01911329       0.20642966      -0.01170126      -0.00375045      -0.00776468       0.00188806
Li       0.67986727       3.73436037      10.87482065        6      -0.04482030      -0.14661842       0.22403470       0.01441783       0.01265998      -0.06369703
Li       5.46265068       4.27556113       2.18028632        7      -0.28376821      -0.00490221       0.06790335       0.02694769       0.00237337       0.00327369
Li       3.08535538       0.00494882       0.01039730        8      -0.01276578       0.03068300       0.10304626       0.01764170      -0.01019976      -0.02076275
Li       0.00182975       0.00891926       6.53583995        9       0.07692577       0.12908598       0.17549361      -0.04759535      -0.01370472      -0.05116953
Li       3.06169774       4.01208937      -0.00339635       10      -0.15972427       0.08367592      -0.06444795       0.03300359       0.03050377      -0.01775995
Li      -0.00871869       4.02073673       6.51845396       11      -0.05361038       0.14719737      -0.03640050       0.03154392      -0.02382380       0.02068006
P        0.93811743       2.00376860       1.16389072       12      -0.10594134      -0.13146574      -0.10479530      -0.03465869       0.03343939       0.11371297
P        5.23005492       6.02121932      11.86601794       13      -0.11871439       0.37325883      -0.06693653       0.05564202      -0.20635359      -0.05298639
P        4.03417613       6.01591866       5.35286652       14       0.18272550       0.19547922       0.14915578      -0.10964803      -0.02956789      -0.11575708
P        2.13744777       1.99883339       7.67504208       15      -0.21271199      -0.16401941      -0.21677180       0.23954701       0.15549612       0.18997242
S        5.08308327       2.01123564       1.30501344       16      -0.40968804       0.37773379      -0.13465397      -0.14979911      -0.06496026       0.01614083
S        1.08982128       6.01186363      11.72270931       17       0.32647943      -0.07564611      -0.00448233       0.09055354       0.04490209      -0.01522744
S        2.00539842       6.01338390       5.21595778       18      -0.22944686       0.30228086       0.25444595      -0.15733692       0.01513834      -0.01845817