32
Lattice="6.17176593 0.0 0.0 0.0 8.01859859 0.0 0.0 0.0 13.03281824" Properties=species:S:1:pos:R:3:spacegroup_kinds:I:1:forces:R:3 spacegroup="P 1" unit_cell=conventional occupancy="_JSON {\"0\": {\"Li\": 1}, \"1\": {\"Li\": 1}, \"2\": {\"Li\": 1}, \"3\": {\"Li\": 1}, \"4\": {\"Li\": 1}, \"5\": {\"Li\": 1}, \"6\": {\"Li\": 1}, \"7\": {\"Li\": 1}, \"8\": {\"Li\": 1}, \"9\": {\"Li\": 1}, \"10\": {\"Li\": 1}, \"11\": {\"Li\": 1}, \"12\": {\"P\": 1}, \"13\": {\"P\": 1}, \"14\": {\"P\": 1}, \"15\": {\"P\": 1}, \"16\": {\"S\": 1}, \"17\": {\"S\": 1}, \"18\": {\"S\": 1}, \"19\": {\"S\": 1}, \"20\": {\"S\": 1}, \"21\": {\"S\": 1}, \"22\": {\"S\": 1}, \"23\": {\"S\": 1}, \"24\": {\"S\": 1}, \"25\": {\"S\": 1}, \"26\": {\"S\": 1}, \"27\": {\"S\": 1}, \"28\": {\"S\": 1}, \"29\": {\"S\": 1}, \"30\": {\"S\": 1}, \"31\": {\"S\": 1}}" energy=-140.31871032714844 free_energy=-140.31871032714844 stress="-0.007170633412897587 -2.1997217380942402e-09 3.993981589900386e-09 -2.1997217380942402e-09 -0.008259405381977558 -8.602722090245152e-09 3.993981589900386e-09 -8.602722090245152e-09 -0.005266305524855852" pbc="T T T"
Li       2.40329652       0.26860172       4.33400832        0      -0.02603511       0.00549075      -0.00432152
Li       3.76846941       7.74999687       8.69880992        1       0.02603666      -0.00549228       0.00432266
Li       5.48917948       7.74999687       2.18240080        2      -0.02603605      -0.00549042       0.00432263
Li       0.68258645       0.26860172      10.85041744        3       0.02603561       0.00549171      -0.00431921
Li       3.76846941       4.27790102       8.69880992        4       0.02603594       0.00549150       0.00432239
Li       2.40329652       3.74069757       4.33400832        5      -0.02603531      -0.00549057      -0.00432140
Li       0.68258645       3.74069757      10.85041744        6       0.02603573      -0.00549223      -0.00431938
Li       5.48917948       4.27790102       2.18240080        7      -0.02603622       0.00549064       0.00432282
Li       3.08588297       0.00000000       0.00000000        8      -0.00000079      -0.00000170      -0.00000010
Li       0.00000000       0.00000000       6.51640912        9       0.00000042      -0.00000043      -0.00000020
Li       3.08588297       4.00929929       0.00000000       10      -0.00000053       0.00000068      -0.00000122
Li       0.00000000       4.00929929       6.51640912       11       0.00000009       0.00000119       0.00000119
P        0.94051010       2.00464965       1.16601784       12      -0.02067209      -0.00000181       0.02375969
P        5.23125583       6.01394894      11.86680040       13       0.02066681       0.00000102      -0.02375861
P        4.02639307       6.01394894       5.35039128       14      -0.02066671       0.00000016      -0.02375635
P        2.14537286       2.00464965       7.68242696       15       0.02066868      -0.00000032       0.02375731
S        5.08970823       2.00464965       1.30575389       16      -0.25450623      -0.00000049       0.01679016
S        1.08205770       6.01394894      11.72706435       17       0.25450796       0.00000099      -0.01679069
S        2.00382526       6.01394894       5.21065523       18      -0.25450620      -0.00000061      -0.01679214
S        4.16794067       2.00464965       7.82216301       19       0.25450033       0.00000044       0.01679005
S        1.68132889       2.00464965      12.25955363       20       0.10912246       0.00000057      -0.16719535
S        4.49043704       6.01394894       0.77326461       21      -0.10912061      -0.00000003       0.16718186
S        4.76721186       6.01394894       7.28967373       22       0.10912041       0.00000032       0.16717835
S        1.40455407       2.00464965       5.74314451       23      -0.10911991       0.00000048      -0.16718154
S        1.67233151       0.29287049       2.00524453       24       0.13957784      -0.21272554       0.08709927
S        4.49943442       7.72572810      11.02757371       25      -0.13957554       0.21272469      -0.08709335
S        4.75821447       7.72572810       4.51116459       26       0.13957518       0.21272421      -0.08709197
S        1.41355146       0.29287049       8.52165365       27      -0.13957608      -0.21272103       0.08709095
S        4.49943442       4.30216979      11.02757371       28      -0.13957641      -0.21272470      -0.08709447
S        1.67233151       3.71642880       2.00524453       29       0.13957870       0.21272656       0.08709830
S        1.41355146       3.71642880       8.52165365       30      -0.13957584       0.21272224       0.08709191
S        4.75821447       4.30216979       4.51116459       31       0.13957670      -0.21272615      -0.08709246
