56
Lattice="10.7619164 0.0 0.0 -9.665296305262016 4.732958053065482 0.0 -0.5483100463354086 -2.3664790220718444 10.484177494289693" Properties=species:S:1:pos:R:3:spacegroup_kinds:I:1:momenta:R:3:forces:R:3 spacegroup="P 1" unit_cell=conventional occupancy="_JSON {\"0\": {\"H\": 1}, \"1\": {\"H\": 1}, \"2\": {\"H\": 1}, \"3\": {\"H\": 1}, \"4\": {\"H\": 1}, \"5\": {\"H\": 1}, \"6\": {\"H\": 1}, \"7\": {\"H\": 1}, \"8\": {\"H\": 1}, \"9\": {\"H\": 1}, \"10\": {\"H\": 1}, \"11\": {\"H\": 1}, \"12\": {\"H\": 1}, \"13\": {\"H\": 1}, \"14\": {\"H\": 1}, \"15\": {\"H\": 1}, \"16\": {\"H\": 1}, \"17\": {\"H\": 1}, \"18\": {\"H\": 1}, \"19\": {\"H\": 1}, \"20\": {\"H\": 1}, \"21\": {\"H\": 1}, \"22\": {\"H\": 1}, \"23\": {\"H\": 1}, \"24\": {\"H\": 1}, \"25\": {\"H\": 1}, \"26\": {\"H\": 1}, \"27\": {\"H\": 1}, \"28\": {\"H\": 1}, \"29\": {\"H\": 1}, \"30\": {\"H\": 1}, \"31\": {\"H\": 1}, \"32\": {\"C\": 1}, \"33\": {\"C\": 1}, \"34\": {\"C\": 1}, \"35\": {\"C\": 1}, \"36\": {\"C\": 1}, \"37\": {\"C\": 1}, \"38\": {\"C\": 1}, \"39\": {\"C\": 1}, \"40\": {\"C\": 1}, \"41\": {\"C\": 1}, \"42\": {\"C\": 1}, \"43\": {\"C\": 1}, \"44\": {\"C\": 1}, \"45\": {\"C\": 1}, \"46\": {\"C\": 1}, \"47\": {\"C\": 1}, \"48\": {\"O\": 1}, \"49\": {\"O\": 1}, \"50\": {\"O\": 1}, \"51\": {\"O\": 1}, \"52\": {\"O\": 1}, \"53\": {\"O\": 1}, \"54\": {\"O\": 1}, \"55\": {\"O\": 1}}" energy=-313.6218566894531 free_energy=-313.6218566894531 stress="-0.006905435584485531 -0.001385263865813613 -0.004504692275077105 -0.001385263865813613 0.009439169429242611 0.005599965341389179 -0.004504692275077105 0.005599965341389179 0.013407157734036446" pbc="T T T"
H        0.49738850       1.84331597       1.77824723        0      -0.10613572      -0.09781632       0.11564576      -0.18202254       0.31332383       0.59539688
H        0.10556140      -0.11663780       8.27653528        1       0.04015923      -0.13169612       0.14437820      -0.36897495      -0.78897166       0.22591275
H        6.62289091      -0.91207463       5.20265659        2      -0.16864457       0.10450159      -0.19164154       0.98594928      -0.03108921       0.77322769
H        3.36922824       0.56254881       5.08036068        3       0.12068287      -0.12390952       0.11664012      -0.39408177      -0.59534329      -0.23536101
H        5.95301265       0.59228750       3.38812109        4       0.14111238      -0.33747161      -0.07871970      -0.93091679      -0.50391519       0.87667471
H        5.01744003       0.42520675       7.32442009        5      -0.23162802       0.06489307      -0.14197753      -0.38864344      -1.26106799      -0.47848371
H       -1.57731780       0.54128612      10.53958388        6      -0.12407181      -0.08816763      -0.07763624      -0.37743360      -0.46799904       0.30720103
H        2.69863463       2.00433403       0.26116700        7      -0.05404038       0.01557123      -0.10225932      -0.72495151      -0.67533022      -0.86530614
H       -1.22303978       1.63674053       1.75940515        8      -0.05424955       0.24253171      -0.13897861      -0.49741024      -0.09367511       0.10530754
H       -8.93359112       2.96970979       8.47514790        9      -0.06042029      -0.12559535      -0.10761970       0.36621112      -0.63051927       0.55257684
H       -2.26849156       4.25936941       6.83350177       10       0.20578888       0.12214685       0.33238256      -0.06949964      -0.47619441      -0.34378219
H       -6.68836118       4.95609544       3.39407472       11      -0.06212378       0.10326049      -0.15892995       0.13253905      -0.56484818       0.15243587
H       -3.12925510       0.32645831       3.01954341       12       0.09286670       0.17897884      -0.00989608       0.31408694       0.11225951       0.01380431
H       -6.80751052       1.79512299       7.74588643       13       0.11313588      -0.05419629      -0.04504031      -2.35594320       0.59494996      -0.52510214
H       -1.67751160       0.97559860       8.80862400       14       0.00516114      -0.30016329      -0.16851319      -0.66054416       0.17537245       0.81925857
H       -7.85157881       2.25969135       2.02092866       15       0.06193714       0.16966602       0.04109007       0.45021516       0.30493158      -0.97371715
H       -1.03679274       0.54726095       4.10971785       16       0.09384679       0.18126182      -0.07858840       0.29054236       0.47455871       0.73892760
H        1.41496405       2.60741875       5.94194784       17       0.17914771       0.16207971      -0.08142847       0.04019728      -0.18983224       0.67822659
H       -0.64058362       2.00872386       6.06364875       18      -0.05634323       0.12337084       0.04032505      -0.53551704       0.51597071      -0.09276308
H        0.85977691      -0.92446397       4.06230123       19       0.08226649       0.01615365       0.13954002      -0.43777320      -0.05474695       0.42652842
H        7.07832383       1.52716383       0.77918393       20       0.03745969       0.06298942      -0.11847533      -0.51152194      -0.36470288      -0.19009528
H       -5.65481844       2.28567774       9.73115044       21       0.07723422       0.36926547      -0.07796184       0.09997443      -0.39058393       0.05155391
H        6.08095760      -2.02800075       9.57309355       22       0.04996108       0.13992218      -0.04251358       0.10451976      -0.44056484      -0.00563146
H       -5.39307823       3.26285566       1.28813582       23      -0.08191875      -0.05415594       0.26987174      -0.86360252      -0.75486743      -0.77635676
H       -0.07299383       0.27971749       1.81916973       24       0.13898014       0.34269379       0.14181164      -0.42564195      -0.34437609       0.62044799
H       -1.06699988      -1.51563966       8.21163922       25      -0.20145664       0.01373108       0.07616450      -0.17211759      -0.24385372       0.51165044
H       -2.96209884       2.60530209       6.43440284       26       0.06315694      -0.07175114      -0.16381489       0.16210037       0.09859085       0.31126174
H       -6.35720012       3.51669278       4.57538929       27       0.16449701       0.18567778       0.02440254      -0.60309911       1.40273404      -0.34498355
H       -3.82677250       2.00991119       3.18430538       28       0.08980675      -0.11710641      -0.00472080       0.23108545       0.02059551      -0.20068894
H       -5.17636456       2.03285292       7.19923443       29       0.10905445      -0.18779601       0.15105846      -0.36808565      -0.23565212       0.74254322
H       -0.79357742       4.53174499      -0.43569577       30      -0.12628013      -0.10201582      -0.01900638      -0.09976403       0.06219324       0.11299611
H        2.31575727       1.30675578      11.36317819       31       0.12164142       0.07458489      -0.08519166       0.08103679      -0.48911345      -0.09376635
C       -0.37163607       1.38708499       3.80590652       32       0.82677508       0.29513884       0.09766183       0.43048784      -0.84296781      -2.02712512
C        0.11847905      -1.18778296       6.49983780       33      -0.62840351      -0.18736722      -0.14628214      -0.37041730       0.27214977      -0.96541870
C       -0.97555897       2.96185319       5.57576502       34      -0.36449365      -1.07571515       0.20948497       0.37155443       0.17795359       0.59155905
C        1.35011562      -0.15700500       4.68315341       35      -0.02227831       0.95830896       0.13073089       0.73833823       1.50493956       0.40338331
C        6.36784101       0.86650854       1.33870127       36       0.30590243       0.88519323       1.28776872       1.97927630      -0.30296254       0.89317572
C       -5.53677823       1.29363400       9.24627697       37       0.27688716      -0.37684561       0.66636757      -0.66257459      -0.77057052       0.58605438
C       -3.39932660       1.69730073      10.02118761       38      -0.84111925      -0.44256687       0.59809889       0.37919021       0.55000132       0.65975666
C        4.71880462       2.50518188       0.70336303       39       0.38984893       0.88224425      -0.51305584      -0.59659874       1.44279051       0.49371055
C       -0.32683931       1.26219689       2.24609212       40      -0.63948238       0.50545871       0.23424409       0.77351654       0.79703331      -0.39456695
C       -0.05210449      -1.19852062       8.01058151       41       0.11582168      -0.65736782      -0.92747974       0.85171419       1.37443733      -1.02300811
C       -2.37909937       3.46525765       6.06278727       42      -0.05353335       0.08466869      -0.15003017      -0.40585554      -0.60533118      -1.67187619
C        2.83806341      -0.17358541       4.41939525       43       0.55230247       0.76816374      -0.43149764       1.06821060      -0.67908752       0.54368573
C        6.77902025       0.98017836       2.84378920       44      -1.12307049      -0.45029101       0.26639833      -0.51441658       0.02889994      -1.28142297
C       -5.86817691       1.36776544       7.79427939       45      -0.98979858      -0.05587603      -0.83441588       2.87887216       1.13960040      -0.55466247
C       -1.97699405       1.28319935       9.85895622       46       0.40697263      -0.18668381       0.33790293       1.72742987       0.51332009      -1.56749868
C        3.19008773       2.61285383       0.97606101       47       0.25747293       0.90120996      -0.18333086       1.07156336       1.22871768       1.82996058
O       -0.85758721       2.66103186       4.11713049       48       0.61684577      -0.37118847       1.25663954      -0.17585362       0.40348130       1.06925511
O        1.08909383      -0.23997548       6.12862833       49      -0.39618571      -0.37804574      -0.11483526       0.12260075      -0.37597537      -0.82796800
O       -1.16050483      -0.72093720       5.97406342       50      -0.34983696      -1.05740100      -0.27246492      -0.47367066      -0.41498458      -0.96765345
O        1.00795472       1.19208940       4.24044435       51      -0.03057074       0.15482629      -1.24559173      -1.03327060      -0.52625155       0.63129294
O       -3.10184418       4.20162621       0.97719071       52      -0.29226551       0.28802377      -0.94690466      -0.31201965       1.32850289      -0.04798163
O        4.30825700       0.33413974       9.75623663       53       0.02704176      -1.15722866      -0.33727153      -0.25940207       0.04012692       0.50476086
O       -4.24389642       0.74756649       9.49746215       54       0.41595580      -0.82784399       0.02625860       0.13963959       0.06730115      -0.42571300
O        5.02961376       1.21054924       1.07684132       55       0.87862739       0.61974607       1.29120682      -0.01922826      -0.82935804       0.05840613
