56
Lattice="10.7619164 0.0 0.0 -9.665296305262016 4.732958053065482 0.0 -0.5483100463354086 -2.3664790220718444 10.484177494289693" Properties=species:S:1:pos:R:3:spacegroup_kinds:I:1:momenta:R:3:forces:R:3 spacegroup="P 1" unit_cell=conventional occupancy="_JSON {\"0\": {\"H\": 1}, \"1\": {\"H\": 1}, \"2\": {\"H\": 1}, \"3\": {\"H\": 1}, \"4\": {\"H\": 1}, \"5\": {\"H\": 1}, \"6\": {\"H\": 1}, \"7\": {\"H\": 1}, \"8\": {\"H\": 1}, \"9\": {\"H\": 1}, \"10\": {\"H\": 1}, \"11\": {\"H\": 1}, \"12\": {\"H\": 1}, \"13\": {\"H\": 1}, \"14\": {\"H\": 1}, \"15\": {\"H\": 1}, \"16\": {\"H\": 1}, \"17\": {\"H\": 1}, \"18\": {\"H\": 1}, \"19\": {\"H\": 1}, \"20\": {\"H\": 1}, \"21\": {\"H\": 1}, \"22\": {\"H\": 1}, \"23\": {\"H\": 1}, \"24\": {\"H\": 1}, \"25\": {\"H\": 1}, \"26\": {\"H\": 1}, \"27\": {\"H\": 1}, \"28\": {\"H\": 1}, \"29\": {\"H\": 1}, \"30\": {\"H\": 1}, \"31\": {\"H\": 1}, \"32\": {\"C\": 1}, \"33\": {\"C\": 1}, \"34\": {\"C\": 1}, \"35\": {\"C\": 1}, \"36\": {\"C\": 1}, \"37\": {\"C\": 1}, \"38\": {\"C\": 1}, \"39\": {\"C\": 1}, \"40\": {\"C\": 1}, \"41\": {\"C\": 1}, \"42\": {\"C\": 1}, \"43\": {\"C\": 1}, \"44\": {\"C\": 1}, \"45\": {\"C\": 1}, \"46\": {\"C\": 1}, \"47\": {\"C\": 1}, \"48\": {\"O\": 1}, \"49\": {\"O\": 1}, \"50\": {\"O\": 1}, \"51\": {\"O\": 1}, \"52\": {\"O\": 1}, \"53\": {\"O\": 1}, \"54\": {\"O\": 1}, \"55\": {\"O\": 1}}" energy=-315.20623779296875 free_energy=-315.20623779296875 stress="0.00152597576379776 -0.0007349606021307409 -5.968067284811696e-07 -0.0007349606021307409 -0.0014768288237974048 4.3613656686147806e-08 -5.968067284811696e-07 4.3613656686147806e-08 0.0016979905776679516" pbc="T T T"
H       -0.01248427       2.27696696       1.83153339        0       0.26354636       0.05758816       0.17128558       0.07122699       0.02707755       0.05251635
H        0.46428407      -0.32702137       8.65264411        1       0.35723632       0.30052336      -0.15421514      -0.05205547       0.05564418      -0.05251550
H        7.11696904      -0.62167877       5.76820574        2       0.13651140      -0.03657588      -0.02448058       0.06071803       0.02959692      -0.06332366
H        3.54843712       0.20514534       4.71597175        3       0.04495575       0.01373704       0.24194406      -0.04159899       0.05318689       0.06330285
H        5.94175252       0.08951207       3.41055536        4       0.10004105       0.00919574       0.06893732      -0.07122747      -0.02707719      -0.05251767
H        4.91667413       0.32702137       7.07362213        5       0.03762731       0.23702154      -0.03633186       0.05205645      -0.05563826       0.05251956
H       -1.73601084       0.62167878       9.95806050        6       0.04090260      -0.15000140      -0.41043770      -0.06071873      -0.02958659       0.06332467
H        2.38083113       2.16133369       0.52611700        7       0.07639930       0.13373956      -0.11953039       0.04159770      -0.05318599      -0.06330168
H       -1.38564785       1.18011340       2.11584331        8       0.34764813      -0.24942510       0.01968671       0.00912166       0.09641428       0.00989611
H       -8.45014457       2.81694541       8.36833418        9      -0.04487542       0.24826795       0.27191556       0.03391336       0.09078132      -0.00994020
H       -2.58250803       2.70418269       6.85836100       10       0.00836639       0.05472545      -0.13232917       0.03144357       0.09145418       0.01228175
H       -6.70499477       3.65935988       3.62581649       11      -0.35280026      -0.06406840       0.05024236       0.01202233       0.09588318      -0.01239151
H       -3.44700030       1.18636563       3.12624543       12       0.17759995       0.19181929      -0.04741865      -0.00912221      -0.09641387      -0.00989515
H       -6.59610993       1.91601265       7.35793206       13      -0.06659844      -0.18039638      -0.21144164      -0.03391550      -0.09078151       0.00994091
H       -1.70183007       2.02877537       8.86790524       14      -0.29590695       0.31510437      -0.07166042      -0.03144050      -0.09144845      -0.01229316
H       -7.79294969       3.44007720       1.61627226       15      -0.10166361      -0.21365327       0.15571300      -0.01202442      -0.09588414       0.01239000
H       -0.77544238       0.72057867       4.36236141       16      -0.29135246      -0.04383699      -0.13778795      -0.05580246      -0.06497567       0.06553142
H        1.56164860       2.67260202       6.12181608       17       0.04513471      -0.09416448      -0.19034861       0.02151155      -0.08285683      -0.06550498
H       -0.46393564       1.89516633       6.16016720       18      -0.02388752       0.06229365       0.02104621       0.04679139      -0.08891363       0.03981828
H        0.70181139      -0.86845994       4.32401029       19       0.02574107      -0.11427781      -0.05287528      -0.08095931      -0.05914072      -0.03975119
H        6.70471062       1.64590036       0.87972733       20      -0.14286290      -0.07079985      -0.14118650       0.05580530       0.06498125      -0.06553370
H       -5.84598670       2.06035604       9.60445016       21      -0.29753233       0.02254640      -0.04431235      -0.02151376       0.08285371       0.06550397
H        5.84489385      -1.89516633       9.56609904       22      -0.28312851       0.06560536      -0.15494221      -0.04679298       0.08891515      -0.03981586
H       -5.53445954       3.23493897       0.91807845       23      -0.02208037       0.11416853       0.04301970       0.08095691       0.05914064       0.03974699
H        0.25131050       0.51347389       1.94957474       24       0.15959789      -0.21361364       0.07505588      -0.00851048      -0.01871609      -0.03717788
H       -0.54820374      -1.79480395       8.53460275       25      -0.12868866      -0.15316038      -0.08588331      -0.00033047      -0.02044819       0.03709352
H       -2.80766320       2.46899490       5.11315433       26      -0.07305533       0.00146869      -0.17781296      -0.04083823      -0.01125235       0.00405159
H       -6.60619587       3.34910738       5.37102316       27       0.12888264       0.07074453      -0.23064715       0.03167376      -0.02802461      -0.00411378
H       -5.08395866       1.85300514       3.29251401       28       0.22099581       0.30740365       0.21601993       0.00851458       0.01871301       0.03717778
H       -4.83275446       1.79480396       7.19166349       29      -0.04673026      -0.18471461       0.19482948       0.00034738       0.02045775      -0.03709859
H       -0.92836486       4.63044218       0.12893441       30      -0.09883902       0.19431951       0.04569436       0.04083305       0.01124369      -0.00406398
H        2.32185777       1.38385068      10.35524308       31       0.15211596       0.04921952       0.12080102      -0.03167588       0.02802774       0.00411059
C       -0.12835063       1.44534837       3.84841655       32      -0.28778073       0.91754073       0.18270710      -0.01445550       0.09213179      -0.08206660
C        0.20260826      -1.12485611       6.63576095       33       0.00096406       0.97078231      -0.67128192       0.05361618       0.07627214       0.08205694
C       -0.77226604       2.84130358       5.69336968       34      -0.96473690       0.45234422      -0.54337998      -0.06051272       0.10293022       0.03487871
C        1.39483372      -0.15433229       4.79080781       35       0.83737779      -0.34833687      -0.35976593       0.09947455       0.06571192      -0.03489161
C        6.05761888       0.92113066       1.39367220       36       0.73780001       0.71679960       1.01054651       0.01444772      -0.09213811       0.08206967
C       -5.58356646       1.12485611       9.09050530       37       0.36600935      -0.57579551       1.35161317      -0.05360219      -0.07626265      -0.08206132
C       -3.51207206       1.89165448      10.03289656       38      -0.27702103       0.36712178       0.74445208       0.06052530      -0.10293352      -0.03488975
C        4.53443453       2.52081132       0.45128094       39      -0.47025582       0.22782501       0.51146167      -0.09947139      -0.06572029       0.03490331
C       -0.32593927       1.35886302       2.34265801       40      -0.11966996      -0.73251108       0.28611321      -0.02487597      -0.04884219       0.03836747
C        0.34202778      -1.28942579       8.14151949       41       0.57030904      -0.50578053       0.01064034       0.00090541      -0.05509129      -0.03821136
C       -2.26824862       3.05565688       5.86632716       42      -0.48098077       0.96238649       0.55365818       0.02524535      -0.06073686       0.01393105
C        2.83264719      -0.61974062       4.61785033       43      -0.04860277      -0.55844948       0.33742963      -0.04931941      -0.04330933      -0.01374400
C        6.25520752       1.00761601       2.89943074       44      -0.70747446      -0.11378709      -0.42767829       0.02487168       0.04884396      -0.03836715
C       -5.72298598       1.28942580       7.58474676       45       0.19434055       0.24831833       0.14297097      -0.00092456       0.05507585       0.03821208
C       -2.01608948       1.67730118       9.85993908       46       0.09740524      -0.72425149      -0.69205550      -0.02525519       0.06073071      -0.01389955
C        3.09662106       2.98621965       0.62423841       47      -0.12331172      -0.02208015       0.38636924       0.04932728       0.04330570       0.01374386
O       -0.42625656       2.75924355       4.28180099       48       1.20625674       0.48604619      -0.44497158       0.00567067      -0.06416640       0.01081716
O        1.04798334      -0.07585512       6.20237650       49       0.42305791      -1.01659881      -0.20166176      -0.03317402      -0.05508527      -0.01086373
O       -1.17294689      -0.80803189       6.28015861       50      -0.36133290       0.99731317      -0.30860065      -0.00324891      -0.06212896      -0.01994188
O        1.24638404       1.12493657       4.20401888       51      -0.92624698      -0.21254257      -0.34164539      -0.02462168      -0.05716392       0.01989416
O       -3.30977150       4.34019353       0.96028775       52       0.26500009      -0.83301049      -0.49473951      -0.00567070       0.06416562      -0.01082038
O        4.33297486       0.07585512       9.52388974       53      -0.48283211      -0.49689578       1.25894465       0.03316843       0.05508524       0.01086736
O       -4.20801131       0.80803190       9.44610763       54       0.43498781      -0.06064940      -0.51538975       0.00324842       0.06213045       0.01994569
O        4.68288421       1.24154246       1.03806987       55       0.06343698      -0.82659266      -1.04828579       0.02462478       0.05716857      -0.01989736
56
Lattice="10.7619164 0.0 0.0 -9.665296305262016 4.732958053065482 0.0 -0.5483100463354086 -2.3664790220718444 10.484177494289693" Properties=species:S:1:pos:R:3:spacegroup_kinds:I:1:momenta:R:3:forces:R:3 spacegroup="P 1" unit_cell=conventional occupancy="_JSON {\"0\": {\"H\": 1}, \"1\": {\"H\": 1}, \"2\": {\"H\": 1}, \"3\": {\"H\": 1}, \"4\": {\"H\": 1}, \"5\": {\"H\": 1}, \"6\": {\"H\": 1}, \"7\": {\"H\": 1}, \"8\": {\"H\": 1}, \"9\": {\"H\": 1}, \"10\": {\"H\": 1}, \"11\": {\"H\": 1}, \"12\": {\"H\": 1}, \"13\": {\"H\": 1}, \"14\": {\"H\": 1}, \"15\": {\"H\": 1}, \"16\": {\"H\": 1}, \"17\": {\"H\": 1}, \"18\": {\"H\": 1}, \"19\": {\"H\": 1}, \"20\": {\"H\": 1}, \"21\": {\"H\": 1}, \"22\": {\"H\": 1}, \"23\": {\"H\": 1}, \"24\": {\"H\": 1}, \"25\": {\"H\": 1}, \"26\": {\"H\": 1}, \"27\": {\"H\": 1}, \"28\": {\"H\": 1}, \"29\": {\"H\": 1}, \"30\": {\"H\": 1}, \"31\": {\"H\": 1}, \"32\": {\"C\": 1}, \"33\": {\"C\": 1}, \"34\": {\"C\": 1}, \"35\": {\"C\": 1}, \"36\": {\"C\": 1}, \"37\": {\"C\": 1}, \"38\": {\"C\": 1}, \"39\": {\"C\": 1}, \"40\": {\"C\": 1}, \"41\": {\"C\": 1}, \"42\": {\"C\": 1}, \"43\": {\"C\": 1}, \"44\": {\"C\": 1}, \"45\": {\"C\": 1}, \"46\": {\"C\": 1}, \"47\": {\"C\": 1}, \"48\": {\"O\": 1}, \"49\": {\"O\": 1}, \"50\": {\"O\": 1}, \"51\": {\"O\": 1}, \"52\": {\"O\": 1}, \"53\": {\"O\": 1}, \"54\": {\"O\": 1}, \"55\": {\"O\": 1}}" energy=-314.163330078125 free_energy=-314.163330078125 stress="0.0017966018058359623 -0.006295052822679281 0.004064974375069141 -0.006295052822679281 0.002897524042055011 0.006800142582505941 0.004064974375069141 0.006800142582505941 -0.004473638720810413" pbc="T T T"
H        0.12223870       2.21335578       1.84744826        0      -0.06388220      -0.04107994      -0.23331086      -0.34890693      -0.46718037       0.26391757
H        0.31702073      -0.21474883       8.50409125        1      -0.41596660       0.28241796       0.13417992       0.19316769      -0.82259059      -0.04442086
H        7.16689580      -0.52337020       5.79422136        2      -0.01099341       0.09115173       0.18553088      -0.25331622       0.53085136      -0.08150446
H        3.56769342       0.19128012       4.81695804        3       0.00635023       0.03106378      -0.05661341      -0.45247006      -0.59983289       0.03513616
H        5.89857397       0.12906193       3.45590344        4      -0.13662967       0.06346620       0.07412523      -0.11012983      -0.04154708      -0.10463195
H        5.01440557       0.32414382       7.14335935        5       0.11996958      -0.01313383       0.16304616      -0.17231540      -0.44180399      -0.12289585
H       -1.69404178       0.62953430       9.70230153        6      -0.06773580       0.00953604      -0.07983931      -0.29939491      -0.31746265       0.05525891
H        2.37945912       2.25462946       0.31381003        7      -0.10899701       0.12801565      -0.23887818      -0.36571053      -0.41984731      -0.02494855
H       -1.28062218       1.09681355       2.00394188        8       0.10394085       0.17626289      -0.14567624      -0.56132340      -0.12197499      -0.18949676
H       -8.36548937       3.00985764       8.44664933        9       0.01874352       0.07750841      -0.14054403       0.39232057      -0.31946847      -0.01170149
H       -2.54664929       2.78893571       6.82205309       10       0.03048620       0.25775623      -0.04488819      -0.41237307      -0.20837864       1.19028401
H       -6.74143410       3.80633205       3.57290631       11       0.32050259       0.15943868       0.02898734       0.31104150       0.03236869       0.37734872
H       -3.41360503       1.09458057       3.05616296       12       0.34318387      -0.23802472       0.07743245      -0.50857329       0.08234280       0.33155367
H       -6.59466946       1.88031618       7.31880475       13       0.01536689       0.03548290       0.08656129      -0.08189723      -0.12137386       0.20796400
H       -1.92963189       2.16013646       8.81427841       14       0.12531097      -0.02323651      -0.06972993       0.40313730      -0.12264643      -0.32056442
H       -7.86690875       3.29972357       1.71696128       15      -0.08477302      -0.03159830       0.12293858      -0.01434002      -0.41004339      -0.77136540
H       -0.90235491       0.77646754       4.33988636       16      -0.08686017      -0.05814823       0.28342569       0.40912566       0.11714713       0.19912297
H        1.57326849       2.69585853       6.02312952       17       0.00715133      -0.12380879      -0.16254822      -0.29899207      -0.23122901       0.25480646
H       -0.61632291       1.91476308       6.12879309       18      -0.08876045       0.01924345      -0.05101238       0.36619624      -0.32495487       0.18464763
H        0.76835885      -0.91704688       4.28843427       19      -0.15605146       0.01894757       0.06988642      -0.03238146       0.22899832       0.08527212
H        6.70609324       1.62092023       0.91686457       20       0.01929230      -0.19191475       0.26163567       0.76997501       0.63578308      -0.47934818
H       -5.82009076       2.01052712       9.75507015       21       0.30326579       0.03656592       0.14022324      -0.00922702      -0.03741034      -0.50983757
H        5.81093415      -1.87039273       9.61285222       22       0.20657591       0.20659830      -0.02039155       0.37428188      -0.52969009       0.33497876
H       -5.59543450       3.24736133       1.04015511       23      -0.04224134      -0.11354987       0.21265897       0.13948858      -0.29076827      -0.10893933
H        0.42784599       0.48710585       2.10176740       24       0.30049792      -0.13611018      -0.00468406      -0.59484398       0.09816360      -0.19185099
H       -0.53518867      -1.77813114       8.52127416       25       0.00655527       0.08690821       0.10595509       0.65831637      -0.06782688      -0.13440409
H       -2.96285669       2.59157645       5.13270579       26      -0.25300692       0.03340907       0.06572284       0.52107441       0.35914898       0.31287026
H       -6.55716736       3.24215837       5.23786856       27      -0.16752557      -0.02805258      -0.10766386       0.03741300      -0.88641083       0.79594368
H       -5.03685282       1.93128219       3.36334307       28      -0.15021126       0.12582493      -0.10191907       0.62858307      -0.83862591      -0.54655039
H       -4.85344604       1.77016484       7.27072603       29      -0.06649160       0.16884082       0.01181289       1.25073004       0.88673568      -0.39224568
H       -0.86175593       4.56432669       0.03964642       30       0.17846371      -0.19144326      -0.07943218      -0.39176056      -0.36752349      -0.55813342
H        2.38301366       1.54051128      10.51636410       31      -0.19060847       0.01911273       0.25222969       0.14691001      -0.16933215       0.11265854
C       -0.17581897       1.46226533       3.84974166       32      -0.18515638      -0.57459538      -0.22058238       0.27883053      -0.44003811       0.08530599
C        0.22192599      -1.12504879       6.58997345       33      -0.07512343      -0.46550155       0.08488180      -0.55275512      -0.80494797       0.23250529
C       -0.84336859       2.87265025       5.66245298       34       0.04319846       0.29158529      -0.23378152       1.13017857       0.50398976      -0.24388641
C        1.43229076      -0.18392811       4.79404744       35      -0.39846581      -0.16641814      -0.07506727      -1.39262819       0.15177420      -0.49470526
C        6.06713487       0.93900034       1.43224268       36      -0.39497118      -0.32073235      -0.80955171      -1.35844159      -1.50483465      -0.67591298
C       -5.58329451       1.10380715       9.15771830       37      -0.36193206      -0.01752130       0.07000784      -0.01275387       0.62094891      -0.17375499
C       -3.52181740       1.89477509      10.09402551       38       0.16177549      -0.52863254       0.28467014       0.13258865       0.16549553      -2.07575583
C        4.51640584       2.52102928       0.51005712       39       0.36138352      -0.43527632       0.58505055       0.14678565       0.12095784       0.07939298
C       -0.28405293       1.30051714       2.35611376       40       0.19195159      -0.55821584       0.03644901       1.44869947       0.72397584      -0.52214092
C        0.37449210      -1.27541847       8.11748208       41       0.14753575       0.49373607      -0.46888060      -1.73077786       1.54831612      -0.36516923
C       -2.30636824       3.14844781       5.85186587       42      -0.25949159       1.26103900      -0.54787115      -0.30482745      -0.37170613      -1.63763356
C        2.84200269      -0.65064888       4.64737901       43       0.56034570      -0.10141656      -0.32885408       0.85266757       1.99937224      -1.91112113
C        6.24443650       1.02088159       2.92126917       44       0.40080545      -0.06552277       0.31202165       0.30228448       0.54349828       0.34550130
C       -5.72072980       1.29321541       7.63361805       45      -0.11247044      -0.13664586       1.05760887      -1.14459443      -0.53769904       0.96596164
C       -2.05012738       1.65516314       9.77267023       46      -0.47453570       0.69520809      -0.54057430       0.62452239       1.48065758       1.00712824
C        3.08351632       3.00246314       0.64822751       47      -0.01605092       0.11556199       0.01381029       0.20967577       0.51371282       0.80870610
O       -0.35411232       2.78763683       4.26978768       48       0.22350745       0.25056274       0.25663333      -1.10039902       0.01685566       0.20638253
O        1.06167985      -0.11984225       6.16496939       49      -0.16821840      -0.55392443      -0.45958760       0.11151908       0.85498750       0.49101490
O       -1.21357943      -0.78977938       6.25156088       50      -0.33543381      -0.44277466      -0.25066849       0.73390496      -0.39541602       0.41342169
O        1.20697420       1.13024275       4.19342497       51       0.17004605       0.12777102       0.14454294       0.59316260      -1.04898453       0.70126688
O       -3.31489246       4.29054000       0.93958223       52      -0.41183550      -0.17658504       0.40053861      -0.10514074       0.93135190       2.17609000
O        4.33821577       0.06296654       9.62059752       53       0.35992272       0.45633116       0.21462756       0.43338251       0.52332240      -1.13898098
O       -4.17202258       0.83010247       9.41381798       54       0.02043451       0.24051371      -0.02777854      -0.78841025      -0.43915978       0.27765298
O        4.70668949       1.20000078       0.96656716       55       0.53785635      -0.22599702      -0.23686585      -0.20127943       0.02995184       1.29980540
56
Lattice="10.7619164 0.0 0.0 -9.665296305262016 4.732958053065482 0.0 -0.5483100463354086 -2.3664790220718444 10.484177494289693" Properties=species:S:1:pos:R:3:spacegroup_kinds:I:1:momenta:R:3:forces:R:3 spacegroup="P 1" unit_cell=conventional occupancy="_JSON {\"0\": {\"H\": 1}, \"1\": {\"H\": 1}, \"2\": {\"H\": 1}, \"3\": {\"H\": 1}, \"4\": {\"H\": 1}, \"5\": {\"H\": 1}, \"6\": {\"H\": 1}, \"7\": {\"H\": 1}, \"8\": {\"H\": 1}, \"9\": {\"H\": 1}, \"10\": {\"H\": 1}, \"11\": {\"H\": 1}, \"12\": {\"H\": 1}, \"13\": {\"H\": 1}, \"14\": {\"H\": 1}, \"15\": {\"H\": 1}, \"16\": {\"H\": 1}, \"17\": {\"H\": 1}, \"18\": {\"H\": 1}, \"19\": {\"H\": 1}, \"20\": {\"H\": 1}, \"21\": {\"H\": 1}, \"22\": {\"H\": 1}, \"23\": {\"H\": 1}, \"24\": {\"H\": 1}, \"25\": {\"H\": 1}, \"26\": {\"H\": 1}, \"27\": {\"H\": 1}, \"28\": {\"H\": 1}, \"29\": {\"H\": 1}, \"30\": {\"H\": 1}, \"31\": {\"H\": 1}, \"32\": {\"C\": 1}, \"33\": {\"C\": 1}, \"34\": {\"C\": 1}, \"35\": {\"C\": 1}, \"36\": {\"C\": 1}, \"37\": {\"C\": 1}, \"38\": {\"C\": 1}, \"39\": {\"C\": 1}, \"40\": {\"C\": 1}, \"41\": {\"C\": 1}, \"42\": {\"C\": 1}, \"43\": {\"C\": 1}, \"44\": {\"C\": 1}, \"45\": {\"C\": 1}, \"46\": {\"C\": 1}, \"47\": {\"C\": 1}, \"48\": {\"O\": 1}, \"49\": {\"O\": 1}, \"50\": {\"O\": 1}, \"51\": {\"O\": 1}, \"52\": {\"O\": 1}, \"53\": {\"O\": 1}, \"54\": {\"O\": 1}, \"55\": {\"O\": 1}}" energy=-313.85382080078125 free_energy=-313.85382080078125 stress="0.013761412352323532 -0.004879442509263754 -0.005674315616488457 -0.004879442509263754 0.00616383645683527 0.005476042628288269 -0.005674315616488457 0.005476042628288269 -0.001812863745726645" pbc="T T T"
H        0.15152038       2.21865817       1.86996605        0       0.18670843      -0.17536389       0.06887265      -0.25463068      -0.83075595       0.05804919
H        0.10920524      -0.19334271       8.62244497        1      -0.00897885       0.26460699      -0.03107059       0.20135871      -1.45994186      -1.01799273
H        7.15516442      -0.39883630       5.76710621        2       0.22383277       0.15937101      -0.34067696       0.18644622       0.19728209      -0.26340595
H        3.55287376       0.14212031       5.10648255        3      -0.16824518      -0.25377545       0.22539350      -0.53552306      -0.32389218      -0.69895267
H        5.71904812       0.28007960       3.48878611        4      -0.14175138       0.06957557       0.07981349      -0.42629349      -0.45673722       0.12704818
H        5.07217448       0.33732694       7.23278706        5      -0.02221060       0.07820021       0.03358528       0.14585064      -0.33883512      -0.34743690
H       -1.86337467       0.61454900       9.70908645        6       0.00209989      -0.06951328       0.02682874       0.35397452       0.27212083       0.03442056
H        2.40409173       2.23500124       0.27412513        7      -0.05904515      -0.08227858      -0.03197380       0.20295015       0.43273646      -0.32657415
H       -1.27779550       1.10993541       2.00836779        8      -0.09536236      -0.13044338       0.02708120      -0.83862394       0.04003559      -0.43664193
H       -8.33962612       3.21420941       8.35225619        9       0.17273735       0.29406237      -0.08361761       0.23368052       0.22765563      -0.09218132
H       -2.54133515       3.01261343       6.85842827       10       0.10491066       0.07367795       0.12018057      -0.11240887      -0.33224446       0.81576526
H       -6.39093372       3.84895150       3.60576963       11       0.14443636       0.00657637      -0.00789852      -0.26307818       0.31059909      -0.29986769
H       -3.37778177       0.94136165       3.24467993       12       0.01521882      -0.07500924       0.19341992      -1.33400297      -0.10755611      -0.76893151
H       -6.68609542       1.78694172       7.51153383       13      -0.08667795      -0.27258715      -0.01170132      -0.20095444      -0.13164869      -0.15521640
H       -1.76453238       2.05976705       8.70170623       14       0.02189828      -0.10309671       0.09738982      -0.31269449       0.19350293       0.31044036
H       -7.95445995       3.02340529       1.79564971       15      -0.04973559      -0.11226867       0.02076861       0.41189533       0.38057685      -1.18562329
H       -0.80018667       0.77039120       4.49092966       16       0.00831335      -0.06072634      -0.00660552       0.00096970       0.17438675      -0.99411476
H        1.44500769       2.50713085       6.17382275       17       0.01225034      -0.28997500      -0.01209827       0.24866395       1.14403486       0.13491350
H       -0.56090752       1.92546784       6.04306251       18       0.00912431       0.02953081      -0.02228976      -0.35387117      -0.16754870       0.13082865
H        0.67939899      -0.89355044       4.27079635       19       0.07644902      -0.05095184      -0.04691371       0.30056703      -0.10530305      -0.07735512
H        6.74714457       1.49845913       0.85340932       20      -0.11245992      -0.08927602      -0.22056945       0.51641089       1.18712461      -0.49471170
H       -5.80988208       2.10952451       9.71365894       21      -0.20491581       0.06817237      -0.10894797       0.02467459      -0.34780297      -0.22419551
H        5.87596098      -1.83571088       9.70363727       22      -0.16165009       0.07076710       0.03590473      -0.15178756      -0.88952470      -0.00086379
H       -5.50015882       3.11440193       1.13784142       23       0.11933100       0.03126371      -0.00442162      -0.11864787       0.35621232      -0.32354707
H        0.36855209       0.33657749       1.99417353       24      -0.04607071      -0.23447402      -0.15432092      -1.04204416       1.71019626       0.43702251
H       -0.32413902      -2.00709537       8.53026263       25       0.20339005      -0.17844334      -0.18322120       0.05246590       0.67889261      -0.27905494
H       -3.08714248       2.74677621       5.19721873       26      -0.01915468       0.07455426      -0.09249885       0.58998251       0.03474210       0.12558289
H       -6.69673468       3.25872596       5.21696381       27      -0.09696506      -0.06688878      -0.04755627       0.17544045      -1.07492971       0.50442368
H       -4.83143349       2.04721342       3.16449869       28       0.33766992       0.12941261       0.00704998       0.39477772      -1.34767008      -0.01897347
H       -4.93754020       1.99042839       7.37634389       29       0.05869138       0.23203872       0.01089253      -0.29873556      -0.47476244      -0.05642477
H       -0.81005397       4.51876358       0.00822827       30      -0.20155798       0.23295194      -0.03457208      -0.26691553      -0.02006695      -0.48482406
H        2.48120416       1.62674258      10.66760472       31       0.30393410      -0.01816126       0.05312278      -0.25146720      -0.60053080       0.38425618
C       -0.17497679       1.41202887       3.81608589       32       0.11041269      -0.26316013      -0.10980212       0.95673174       0.41550353       1.33581281
C        0.16861398      -1.18805866       6.60335741       33      -0.76776882       0.02200211       0.67403985      -0.22194304       0.09040888      -0.69300270
C       -0.81165544       2.89924227       5.59186426       34      -0.05282398       0.32732922      -0.63230739      -1.19237280      -0.34071475       0.60169661
C        1.38527140      -0.18167027       4.74198784       35       0.10269941       0.21879247      -0.68694725       0.81695187      -0.55122101      -0.59414941
C        6.06620576       0.86818203       1.37965230       36       0.53230915      -0.54626023       0.08532648      -0.00823357      -0.53997409       1.85034168
C       -5.59710013       1.15461052       9.17270550       37       0.05871131       1.06856413       0.55336547       0.70454943       0.84736115       1.79725599
C       -3.48648165       1.86752582      10.06803997       38       0.30032598       0.37939398      -0.58623080      -0.95997572       1.52577496      -0.53065675