56
Lattice="10.7619164 0.0 0.0 -9.665296305262016 4.732958053065482 0.0 -0.5483100463354086 -2.3664790220718444 10.484177494289693" Properties=species:S:1:pos:R:3:spacegroup_kinds:I:1:forces:R:3 spacegroup="P 1" unit_cell=conventional occupancy="_JSON {\"0\": {\"H\": 1}, \"1\": {\"H\": 1}, \"2\": {\"H\": 1}, \"3\": {\"H\": 1}, \"4\": {\"H\": 1}, \"5\": {\"H\": 1}, \"6\": {\"H\": 1}, \"7\": {\"H\": 1}, \"8\": {\"H\": 1}, \"9\": {\"H\": 1}, \"10\": {\"H\": 1}, \"11\": {\"H\": 1}, \"12\": {\"H\": 1}, \"13\": {\"H\": 1}, \"14\": {\"H\": 1}, \"15\": {\"H\": 1}, \"16\": {\"H\": 1}, \"17\": {\"H\": 1}, \"18\": {\"H\": 1}, \"19\": {\"H\": 1}, \"20\": {\"H\": 1}, \"21\": {\"H\": 1}, \"22\": {\"H\": 1}, \"23\": {\"H\": 1}, \"24\": {\"H\": 1}, \"25\": {\"H\": 1}, \"26\": {\"H\": 1}, \"27\": {\"H\": 1}, \"28\": {\"H\": 1}, \"29\": {\"H\": 1}, \"30\": {\"H\": 1}, \"31\": {\"H\": 1}, \"32\": {\"C\": 1}, \"33\": {\"C\": 1}, \"34\": {\"C\": 1}, \"35\": {\"C\": 1}, \"36\": {\"C\": 1}, \"37\": {\"C\": 1}, \"38\": {\"C\": 1}, \"39\": {\"C\": 1}, \"40\": {\"C\": 1}, \"41\": {\"C\": 1}, \"42\": {\"C\": 1}, \"43\": {\"C\": 1}, \"44\": {\"C\": 1}, \"45\": {\"C\": 1}, \"46\": {\"C\": 1}, \"47\": {\"C\": 1}, \"48\": {\"O\": 1}, \"49\": {\"O\": 1}, \"50\": {\"O\": 1}, \"51\": {\"O\": 1}, \"52\": {\"O\": 1}, \"53\": {\"O\": 1}, \"54\": {\"O\": 1}, \"55\": {\"O\": 1}}" energy=-315.20623779296875 free_energy=-315.20623779296875 stress="0.00152597576379776 -0.0007349606021307409 -5.968067284811696e-07 -0.0007349606021307409 -0.0014768288237974048 4.3613656686147806e-08 -5.968067284811696e-07 4.3613656686147806e-08 0.0016979905776679516" pbc="T T T"
H       -0.01248427       2.27696696       1.83153339        0       0.07122699       0.02707755       0.05251635
H        0.46428407      -0.32702137       8.65264411        1      -0.05205547       0.05564418      -0.05251550
H        7.11696904      -0.62167877       5.76820574        2       0.06071803       0.02959692      -0.06332366
H        3.54843712       0.20514534       4.71597175        3      -0.04159899       0.05318689       0.06330285
H        5.94175252       0.08951207       3.41055536        4      -0.07122747      -0.02707719      -0.05251767
H        4.91667413       0.32702137       7.07362213        5       0.05205645      -0.05563826       0.05251956
H       -1.73601084       0.62167878       9.95806050        6      -0.06071873      -0.02958659       0.06332467
H        2.38083113       2.16133369       0.52611700        7       0.04159770      -0.05318599      -0.06330168
H       -1.38564785       1.18011340       2.11584331        8       0.00912166       0.09641428       0.00989611
H       -8.45014457       2.81694541       8.36833418        9       0.03391336       0.09078132      -0.00994020
H       -2.58250803       2.70418269       6.85836100       10       0.03144357       0.09145418       0.01228175
H       -6.70499477       3.65935988       3.62581649       11       0.01202233       0.09588318      -0.01239151
H       -3.44700030       1.18636563       3.12624543       12      -0.00912221      -0.09641387      -0.00989515
H       -6.59610993       1.91601265       7.35793206       13      -0.03391550      -0.09078151       0.00994091
H       -1.70183007       2.02877537       8.86790524       14      -0.03144050      -0.09144845      -0.01229316
H       -7.79294969       3.44007720       1.61627226       15      -0.01202442      -0.09588414       0.01239000
H       -0.77544238       0.72057867       4.36236141       16      -0.05580246      -0.06497567       0.06553142
H        1.56164860       2.67260202       6.12181608       17       0.02151155      -0.08285683      -0.06550498
H       -0.46393564       1.89516633       6.16016720       18       0.04679139      -0.08891363       0.03981828
H        0.70181139      -0.86845994       4.32401029       19      -0.08095931      -0.05914072      -0.03975119
H        6.70471062       1.64590036       0.87972733       20       0.05580530       0.06498125      -0.06553370
H       -5.84598670       2.06035604       9.60445016       21      -0.02151376       0.08285371       0.06550397
H        5.84489385      -1.89516633       9.56609904       22      -0.04679298       0.08891515      -0.03981586
H       -5.53445954       3.23493897       0.91807845       23       0.08095691       0.05914064       0.03974699
H        0.25131050       0.51347389       1.94957474       24      -0.00851048      -0.01871609      -0.03717788
H       -0.54820374      -1.79480395       8.53460275       25      -0.00033047      -0.02044819       0.03709352
H       -2.80766320       2.46899490       5.11315433       26      -0.04083823      -0.01125235       0.00405159
H       -6.60619587       3.34910738       5.37102316       27       0.03167376      -0.02802461      -0.00411378
H       -5.08395866       1.85300514       3.29251401       28       0.00851458       0.01871301       0.03717778
H       -4.83275446       1.79480396       7.19166349       29       0.00034738       0.02045775      -0.03709859
H       -0.92836486       4.63044218       0.12893441       30       0.04083305       0.01124369      -0.00406398
H        2.32185777       1.38385068      10.35524308       31      -0.03167588       0.02802774       0.00411059
C       -0.12835063       1.44534837       3.84841655       32      -0.01445550       0.09213179      -0.08206660
C        0.20260826      -1.12485611       6.63576095       33       0.05361618       0.07627214       0.08205694
C       -0.77226604       2.84130358       5.69336968       34      -0.06051272       0.10293022       0.03487871
C        1.39483372      -0.15433229       4.79080781       35       0.09947455       0.06571192      -0.03489161
C        6.05761888       0.92113066       1.39367220       36       0.01444772      -0.09213811       0.08206967
C       -5.58356646       1.12485611       9.09050530       37      -0.05360219      -0.07626265      -0.08206132
C       -3.51207206       1.89165448      10.03289656       38       0.06052530      -0.10293352      -0.03488975
C        4.53443453       2.52081132       0.45128094       39      -0.09947139      -0.06572029       0.03490331
C       -0.32593927       1.35886302       2.34265801       40      -0.02487597      -0.04884219       0.03836747
C        0.34202778      -1.28942579       8.14151949       41       0.00090541      -0.05509129      -0.03821136
C       -2.26824862       3.05565688       5.86632716       42       0.02524535      -0.06073686       0.01393105
C        2.83264719      -0.61974062       4.61785033       43      -0.04931941      -0.04330933      -0.01374400
C        6.25520752       1.00761601       2.89943074       44       0.02487168       0.04884396      -0.03836715
C       -5.72298598       1.28942580       7.58474676       45      -0.00092456       0.05507585       0.03821208
C       -2.01608948       1.67730118       9.85993908       46      -0.02525519       0.06073071      -0.01389955
C        3.09662106       2.98621965       0.62423841       47       0.04932728       0.04330570       0.01374386
O       -0.42625656       2.75924355       4.28180099       48       0.00567067      -0.06416640       0.01081716
O        1.04798334      -0.07585512       6.20237650       49      -0.03317402      -0.05508527      -0.01086373
O       -1.17294689      -0.80803189       6.28015861       50      -0.00324891      -0.06212896      -0.01994188
O        1.24638404       1.12493657       4.20401888       51      -0.02462168      -0.05716392       0.01989416
O       -3.30977150       4.34019353       0.96028775       52      -0.00567070       0.06416562      -0.01082038
O        4.33297486       0.07585512       9.52388974       53       0.03316843       0.05508524       0.01086736
O       -4.20801131       0.80803190       9.44610763       54       0.00324842       0.06213045       0.01994569
O        4.68288421       1.24154246       1.03806987       55       0.02462478       0.05716857      -0.01989736
