4
Lattice="3.128588 0.0 0.0 -1.5642939988088433 2.709436998432005 0.0 0.0 0.0 5.016955" Properties=species:S:1:pos:R:3:spacegroup_kinds:I:1:forces:R:3 spacegroup="P 1" unit_cell=conventional occupancy="_JSON {\"0\": {\"Al\": 1}, \"1\": {\"Al\": 1}, \"2\": {\"N\": 1}, \"3\": {\"N\": 1}}" energy=-29.673715591430664 free_energy=-29.673715591430664 stress="-0.002225307747721672 -1.3510165217667236e-06 4.754231675008214e-09 -1.3510165217667236e-06 -0.0022274672519415617 -2.5793061908530035e-08 4.754231675008214e-09 -2.5793061908530035e-08 -0.0054536862298846245" pbc="T T T"
Al       1.56429556       0.90314476       2.50490041        0      -0.00003378       0.00002031       0.00553241
Al      -0.00000156       1.80629224       5.01337791        1       0.00003384      -0.00001980       0.00552381
N        1.56429556       0.90314476       4.41849749        2      -0.00003545       0.00002082      -0.00553045
N       -0.00000156       1.80629224       1.91001999        3       0.00003535      -0.00002146      -0.00552539
