4
Lattice="3.128588 0.0 0.0 -1.5642939988088433 2.709436998432005 0.0 0.0 0.0 5.016955" Properties=species:S:1:pos:R:3:spacegroup_kinds:I:1:momenta:R:3:forces:R:3 spacegroup="P 1" unit_cell=conventional occupancy="_JSON {\"0\": {\"Al\": 1}, \"1\": {\"Al\": 1}, \"2\": {\"N\": 1}, \"3\": {\"N\": 1}}" energy=-29.623743057250977 free_energy=-29.623743057250977 stress="0.004300572443753481 -0.008672507479786873 0.0028818699065595865 -0.008672507479786873 -0.0069435965269804 -0.004434523638337851 0.0028818699065595865 -0.004434523638337851 -0.014838898554444313" pbc="T T T"
Al       1.54321201       0.89379625       2.53645984        0      -0.00705412      -0.41529131       0.79444887      -0.25250366       0.39302978      -0.87834275
Al       0.03580899       1.79893951       4.98957803        1       0.09337919      -0.29525175      -0.61191834      -0.16601121       0.14058234       0.62744820
N        1.59619753       0.90645099       4.40111845        2      -0.02189816       1.09350659       0.27120787      -0.08899594      -0.09593993       0.34911150
N       -0.05911254       1.83464200       1.91219260        3      -0.06442689      -0.38296354      -0.45373840       0.50751090      -0.43767229      -0.09821726
