4
Lattice="3.128588 0.0 0.0 -1.5642939988088433 2.709436998432005 0.0 0.0 0.0 5.016955" Properties=species:S:1:pos:R:3:spacegroup_kinds:I:1:momenta:R:3:forces:R:3 spacegroup="P 1" unit_cell=conventional occupancy="_JSON {\"0\": {\"Al\": 1}, \"1\": {\"Al\": 1}, \"2\": {\"N\": 1}, \"3\": {\"N\": 1}}" energy=-29.673717498779297 free_energy=-29.673717498779297 stress="-0.0022252961061894894 -1.3806012475470197e-06 -5.6132222425731015e-08 -1.3806012475470197e-06 -0.0022274362854659557 -1.7737299629061454e-08 -5.6132222425731015e-08 -1.7737299629061454e-08 -0.005453737918287516" pbc="T T T"
Al       1.56429556       0.90314476       2.50490041        0       0.68448204       0.53670047       0.91071479      -0.00003386       0.00002073       0.00553206
Al      -0.00000156       1.80629224       5.01337791        1       0.31075784       0.39520501      -1.87833745       0.00003500      -0.00002020       0.00552376
N        1.56429556       0.90314476       4.41849749        2      -0.23293981      -0.79739853      -0.40745139      -0.00003686       0.00002043      -0.00553094
N       -0.00000156       1.80629224       1.91001999        3      -0.76230006      -0.13450696       1.37507406       0.00003572      -0.00002091      -0.00552442
4
Lattice="3.128588 0.0 0.0 -1.5642939988088433 2.709436998432005 0.0 0.0 0.0 5.016955" Properties=species:S:1:pos:R:3:spacegroup_kinds:I:1:momenta:R:3:forces:R:3 spacegroup="P 1" unit_cell=conventional occupancy="_JSON {\"0\": {\"Al\": 1}, \"1\": {\"Al\": 1}, \"2\": {\"N\": 1}, \"3\": {\"N\": 1}}" energy=-29.43359375 free_energy=-29.43359375 stress="-0.013773484155535698 -0.016446487978100777 0.012948807328939438 -0.016446487978100777 -0.023968854919075966 0.009969734586775303 0.012948807328939438 0.009969734586775303 -0.012059437111020088" pbc="T T T"
Al       1.60246141       0.92231284       2.54150849        0       0.57498210      -0.13491991       1.02882472      -1.31301284      -0.49033260      -0.87831324
Al       0.00328788       1.81111139       4.94718774        1      -0.44725815       0.00118051      -1.07867313      -0.30154109      -0.59423292       1.18011832
N        1.53678588       0.85870780       4.38099594        2       0.14052046      -0.46066716       0.20203869       0.28490734       0.67984575       1.25553620
N       -0.05228245       1.80432670       2.00436660        3      -0.26824443       0.59440655      -0.15219034       1.32964659       0.40471992      -1.55734158
4
Lattice="3.128588 0.0 0.0 -1.5642939988088433 2.709436998432005 0.0 0.0 0.0 5.016955" Properties=species:S:1:pos:R:3:spacegroup_kinds:I:1:momenta:R:3:forces:R:3 spacegroup="P 1" unit_cell=conventional occupancy="_JSON {\"0\": {\"Al\": 1}, \"1\": {\"Al\": 1}, \"2\": {\"N\": 1}, \"3\": {\"N\": 1}}" energy=-29.567258834838867 free_energy=-29.567258834838867 stress="0.01291572768241167 0.0017023887485265732 0.0035793811548501253 0.0017023887485265732 -0.02585703693330288 -0.005369102582335472 0.0035793811548501253 -0.005369102582335472 -0.011435338295996189" pbc="T T T"
Al       1.59598186       0.90138486       2.55101265        0      -0.85003986      -0.64755192      -0.41676308      -0.33522820       0.74370313      -1.26921225
Al      -0.01311800       1.79082858       4.96769657        1      -0.24557014      -0.74327782       1.65595774      -0.18280329      -0.17026854       1.21499658
N        1.52960409       0.86779352       4.41996342        2       0.16413059       0.60763577       0.63654583       0.31887758       0.39321479      -0.09056873
N       -0.00060094       1.87475188       1.90756520        3       0.93147936       0.78319397      -1.87574054       0.19915393      -0.96664953       0.14478430
4
Lattice="3.128588 0.0 0.0 -1.5642939988088433 2.709436998432005 0.0 0.0 0.0 5.016955" Properties=species:S:1:pos:R:3:spacegroup_kinds:I:1:momenta:R:3:forces:R:3 spacegroup="P 1" unit_cell=conventional occupancy="_JSON {\"0\": {\"Al\": 1}, \"1\": {\"Al\": 1}, \"2\": {\"N\": 1}, \"3\": {\"N\": 1}}" energy=-29.406274795532227 free_energy=-29.406274795532227 stress="0.010688792914152145 0.016498133540153503 -0.008164008148014545 0.016498133540153503 -0.009423092007637024 -0.015553933568298817 -0.008164008148014545 -0.015553933568298817 -0.061254095286130905" pbc="T T T"
Al       1.53423928       0.87298460       2.51007452        0      -1.60925382       0.09619204      -1.03262329       0.74608886       1.00298655       0.03482240
Al      -0.01349003       1.78470222       5.05709163        1       0.21561251      -0.04339785       1.72443314       0.02271214       0.40732875      -1.66436958
N        1.55208973       0.92225132       4.42203510        2       0.38659375       0.63935796      -0.93002899       0.04495788      -0.39009649      -0.56986016
N        0.09667397       1.88681818       1.81230438        3       1.00704753      -0.69215217       0.23821909      -0.81375873      -1.02021885       2.19940686
4
Lattice="3.128588 0.0 0.0 -1.5642939988088433 2.709436998432005 0.0 0.0 0.0 5.016955" Properties=species:S:1:pos:R:3:spacegroup_kinds:I:1:momenta:R:3:forces:R:3 spacegroup="P 1" unit_cell=conventional occupancy="_JSON {\"0\": {\"Al\": 1}, \"1\": {\"Al\": 1}, \"2\": {\"N\": 1}, \"3\": {\"N\": 1}}" energy=-29.201904296875 free_energy=-29.201904296875 stress="-0.026440773159265518 0.03815530985593796 -0.031382642686367035 0.03815530985593796 -0.004877304658293724 0.001543721416965127 -0.031382642686367035 0.001543721416965127 -0.05181969329714775" pbc="T T T"
Al       1.49382402       0.87740192       2.48150488        0      -0.08661633      -0.02748813       0.25595536       2.48428106      -0.46186626       1.22611856
Al      -0.02076735       1.79337851       5.08843295        1       0.00716735       0.60209033      -1.27068287       0.64723349       0.57433462      -2.36004186
N        1.60157220       0.96971685       4.33361321        2       0.49437273       0.53651054      -0.17473385      -0.53882617      -0.70145333       1.74608994
N        0.13924906       1.81421453       1.89535166        3      -0.41492378      -1.11111283       1.18946131      -2.59268832       0.58898491      -0.61216712
4
Lattice="3.128588 0.0 0.0 -1.5642939988088433 2.709436998432005 0.0 0.0 0.0 5.016955" Properties=species:S:1:pos:R:3:spacegroup_kinds:I:1:momenta:R:3:forces:R:3 spacegroup="P 1" unit_cell=conventional occupancy="_JSON {\"0\": {\"Al\": 1}, \"1\": {\"Al\": 1}, \"2\": {\"N\": 1}, \"3\": {\"N\": 1}}" energy=-29.57462501525879 free_energy=-29.57462501525879 stress="-0.023618051782250404 -0.01432123128324747 -0.011127945967018604 -0.01432123128324747 0.01503013726323843 -0.0028546347748488188 -0.011127945967018604 -0.0028546347748488188 -0.014440448023378849" pbc="T T T"
Al       1.53421961       0.88369269       2.53780580        0       1.55944032       0.36820910       1.55970998       0.29264328      -0.24000460      -0.91367906
Al      -0.00048006       1.82107763       4.98837342        1       1.01688535       0.86374289      -2.47525429       0.94369471       0.52251613       0.78486562
N        1.63583966       0.96584651       4.40663183        2      -0.31021862      -0.52489307       1.27117371      -1.15103757      -0.78907233       0.05687885
N       -0.01177523       1.75252281       1.90648732        3      -2.26610712      -0.70705905      -0.35562957      -0.08530069       0.50656074       0.07193450
4
Lattice="3.128588 0.0 0.0 -1.5642939988088433 2.709436998432005 0.0 0.0 0.0 5.016955" Properties=species:S:1:pos:R:3:spacegroup_kinds:I:1:momenta:R:3:forces:R:3 spacegroup="P 1" unit_cell=conventional occupancy="_JSON {\"0\": {\"Al\": 1}, \"1\": {\"Al\": 1}, \"2\": {\"N\": 1}, \"3\": {\"N\": 1}}" energy=-29.372068405151367 free_energy=-29.372068405151367 stress="-0.005629443563520908 -0.018719661980867386 0.015849385410547256 -0.018719661980867386 -0.03227265179157257 0.017212212085723877 0.015849385410547256 0.017212212085723877 -0.007298149634152651" pbc="T T T"
Al       1.57072833       0.88046443       2.56331973        0      -0.00039290      -0.37629485      -0.57844072      -1.34386539      -0.44065803      -1.50707650
Al       0.05055070       1.86456079       4.94968571        1       0.52726970       0.77034158       1.04960194      -0.49128717      -1.36433935       1.82584822
N        1.58204804       0.88176661       4.44992391        2      -0.27832210      -1.02263402      -0.55459251       0.15003374       1.16376305      -0.85894918
N       -0.12661086       1.75915454       1.88869865        3      -0.24855472       0.62858723       0.08343117       1.68511891       0.64123452       0.54017699
4
Lattice="3.128588 0.0 0.0 -1.5642939988088433 2.709436998432005 0.0 0.0 0.0 5.016955" Properties=species:S:1:pos:R:3:spacegroup_kinds:I:1:momenta:R:3:forces:R:3 spacegroup="P 1" unit_cell=conventional occupancy="_JSON {\"0\": {\"Al\": 1}, \"1\": {\"Al\": 1}, \"2\": {\"N\": 1}, \"3\": {\"N\": 1}}" energy=-29.596925735473633 free_energy=-29.596925735473633 stress="0.015976283699274063 -0.004506188910454512 0.006018735934048891 -0.004506188910454512 -0.025499409064650536 -0.00459703803062439 0.006018735934048891 -0.00459703803062439 -0.010013842955231667" pbc="T T T"
Al       1.53284804       0.86390067       2.51395075        0      -1.59464506      -0.16469694      -1.74991289      -0.27820203       0.89915621      -0.15420385
Al       0.06317839       1.83227865       5.00948379        1       0.38440021      -1.80666596       1.59449904      -0.58708727      -0.41271657       0.16724996
N        1.58572480       0.89623785       4.41422578        2       0.14193126       1.12964931      -0.09119159       0.25704211       0.38076717       0.00228077
N       -0.08152102       1.83862418       1.90381441        3       1.06831357       0.84171356       0.24660532       0.60824716      -0.86720663      -0.01532687
4
Lattice="3.128588 0.0 0.0 -1.5642939988088433 2.709436998432005 0.0 0.0 0.0 5.016955" Properties=species:S:1:pos:R:3:spacegroup_kinds:I:1:momenta:R:3:forces:R:3 spacegroup="P 1" unit_cell=conventional occupancy="_JSON {\"0\": {\"Al\": 1}, \"1\": {\"Al\": 1}, \"2\": {\"N\": 1}, \"3\": {\"N\": 1}}" energy=-29.46255111694336 free_energy=-29.46255111694336 stress="-0.005697001703083515 0.010849352926015854 -0.003906407859176397 0.010849352926015854 -0.019133824855089188 -0.012703267857432365 -0.003906407859176397 -0.012703267857432365 -0.011871129274368286" pbc="T T T"
Al       1.48347329       0.88264393       2.44527932        0      -0.30454445       1.01149475      -0.60004414       0.88393062       0.95768464       1.70776844
Al       0.06164410       1.77681259       5.07306067        1      -0.86715195      -0.75617411       0.43048863      -0.30080318       0.71655190      -1.72280121
N        1.61717707       0.94947181       4.40498423        2       0.38645786       0.04830108       0.18623219      -0.07234284      -0.67485929       0.48911378
N       -0.01486929       1.85626152       1.92266699        3       0.78523850      -0.30362171      -0.01667681      -0.51078475      -0.99937713      -0.47408140
4
Lattice="3.128588 0.0 0.0 -1.5642939988088433 2.709436998432005 0.0 0.0 0.0 5.016955" Properties=species:S:1:pos:R:3:spacegroup_kinds:I:1:momenta:R:3:forces:R:3 spacegroup="P 1" unit_cell=conventional occupancy="_JSON {\"0\": {\"Al\": 1}, \"1\": {\"Al\": 1}, \"2\": {\"N\": 1}, \"3\": {\"N\": 1}}" energy=-29.51875114440918 free_energy=-29.51875114440918 stress="-0.023371035233139992 0.0065398081205785275 -0.0160978976637125 0.0065398081205785275 0.006697380915284157 -0.0004823926428798586 -0.0160978976637125 -0.0004823926428798586 -0.022160623222589493" pbc="T T T"
Al       1.50607639       0.94974318       2.46463702        0       1.15921301       0.62635269       1.50689863       1.24247539      -0.60704625       1.15697360
Al       0.01335471       1.75088039       5.06242870        1      -0.91112029       0.14825238      -0.88962557       0.51474732       0.69610792      -1.43088460
N        1.62637953       0.90489618       4.42127851        2      -0.14223503      -0.64065033       0.21498380      -0.71771759      -0.51824439      -0.07984740
N        0.02538009       1.82158368       1.88963021        3      -0.10585775      -0.13395469      -0.83225701      -1.03950524       0.42918283       0.35375828
4
Lattice="3.128588 0.0 0.0 -1.5642939988088433 2.709436998432005 0.0 0.0 0.0 5.016955" Properties=species:S:1:pos:R:3:spacegroup_kinds:I:1:momenta:R:3:forces:R:3 spacegroup="P 1" unit_cell=conventional occupancy="_JSON {\"0\": {\"Al\": 1}, \"1\": {\"Al\": 1}, \"2\": {\"N\": 1}, \"3\": {\"N\": 1}}" energy=-29.605009078979492 free_energy=-29.605009078979492 stress="0.0015958416042849422 -0.00678592175245285 -0.0030952526722103357 -0.00678592175245285 0.0017807697877287865 0.0017242261674255133 -0.0030952526722103357 0.0017242261674255133 -0.023113960400223732" pbc="T T T"
Al       1.56693923       0.93861032       2.54470910        0       1.44875286      -0.98943761       1.48437239      -0.01659405      -0.29131556      -1.20301795
Al      -0.01304571       1.78057344       4.99752450        1       0.01689714       1.11024967      -1.70729938       0.38438505       0.02358510       0.50762683
N        1.58384204       0.87104969       4.42155568        2      -0.67927368      -0.02704950      -0.19037126      -0.39236689       0.15177692      -0.39792985
N        0.00122213       1.81989276       1.85992052        3      -0.78637635      -0.09376255       0.41329822       0.02457587       0.11595342       1.09332085
4
Lattice="3.128588 0.0 0.0 -1.5642939988088433 2.709436998432005 0.0 0.0 0.0 5.016955" Properties=species:S:1:pos:R:3:spacegroup_kinds:I:1:momenta:R:3:forces:R:3 spacegroup="P 1" unit_cell=conventional occupancy="_JSON {\"0\": {\"Al\": 1}, \"1\": {\"Al\": 1}, \"2\": {\"N\": 1}, \"3\": {\"N\": 1}}" energy=-29.470203399658203 free_energy=-29.470203399658203 stress="0.0032033133320510387 -0.017801474779844284 0.01183832436800003 -0.017801474779844284 -0.04134923964738846 0.007359829731285572 0.01183832436800003 0.007359829731285572 -0.005160256288945675" pbc="T T T"
Al       1.62755625       0.89950082       2.54516747        0       1.04970733      -0.99981855      -0.80202955      -1.41065073       0.15933418      -0.91779196
Al      -0.00757060       1.81703570       4.95606285        1      -0.03757965       0.11959837      -0.16512800      -0.26242661      -0.84351665       1.41445863
N        1.52756239       0.85151202       4.42065484        2      -0.42752178       0.29023072      -0.07965672       0.31765842       0.98894739      -0.00115412
N       -0.06966664       1.84442106       1.93994535        3      -0.58460594       0.58998948       1.04681426       1.35541892      -0.30476516      -0.49551281
4
Lattice="3.128588 0.0 0.0 -1.5642939988088433 2.709436998432005 0.0 0.0 0.0 5.016955" Properties=species:S:1:pos:R:3:spacegroup_kinds:I:1:momenta:R:3:forces:R:3 spacegroup="P 1" unit_cell=conventional occupancy="_JSON {\"0\": {\"Al\": 1}, \"1\": {\"Al\": 1}, \"2\": {\"N\": 1}, \"3\": {\"N\": 1}}" energy=-29.452985763549805 free_energy=-29.452985763549805 stress="-0.013225279748439789 -0.02375008910894394 0.007911487482488155 -0.02375008910894394 -0.0479319728910923 -0.00733335642144084 0.007911487482488155 -0.00733335642144084 0.028633056208491325" pbc="T T T"
Al       1.63184034       0.85684030       2.46693545        0      -0.97589076      -0.55899654      -1.34838322      -1.39010155       1.11025882       1.17303967
Al      -0.02377745       1.82170278       4.98999597        1      -0.28018770       0.45883516       1.28013455      -0.08532642       0.08283515       0.34697208
N        1.52792701       0.92957751       4.44479008        2       0.11446432       0.97873254       0.08012575       0.22036199      -0.17398730       0.05599253
N       -0.04718866       1.83921500       2.00086011        3       1.14161411      -0.87857114      -0.01187709       1.25506616      -1.01910639      -1.57600451
4
Lattice="3.128588 0.0 0.0 -1.5642939988088433 2.709436998432005 0.0 0.0 0.0 5.016955" Properties=species:S:1:pos:R:3:spacegroup_kinds:I:1:momenta:R:3:forces:R:3 spacegroup="P 1" unit_cell=conventional occupancy="_JSON {\"0\": {\"Al\": 1}, \"1\": {\"Al\": 1}, \"2\": {\"N\": 1}, \"3\": {\"N\": 1}}" energy=-29.53631591796875 free_energy=-29.53631591796875 stress="-0.019857844337821007 0.013828898780047894 -0.005717399995774031 0.013828898780047894 -0.003164305817335844 -0.0016707810573279858 -0.005717399995774031 -0.0016707810573279858 -0.006260163616389036" pbc="T T T"
Al       1.56291504       0.86348346       2.43836896        0      -1.44558751       0.38889052       0.34075060       0.67286074       0.11609177       1.45909488
Al      -0.01834140       1.83613135       5.05736565        1       0.19731535      -0.00921497       1.04742139       0.06595250       0.15003420      -1.19267488
N        1.54726696       0.95741147       4.47045641        2      -0.01024024       0.05684992       0.14843949       0.09761378      -0.44420534      -0.65174466
N        0.05576966       1.77068667       1.90062728        3       1.25851237      -0.43652544      -1.53661147      -0.83642697       0.17807922       0.38532504
4
Lattice="3.128588 0.0 0.0 -1.5642939988088433 2.709436998432005 0.0 0.0 0.0 5.016955" Properties=species:S:1:pos:R:3:spacegroup_kinds:I:1:momenta:R:3:forces:R:3 spacegroup="P 1" unit_cell=conventional occupancy="_JSON {\"0\": {\"Al\": 1}, \"1\": {\"Al\": 1}, \"2\": {\"N\": 1}, \"3\": {\"N\": 1}}" energy=-29.5310001373291 free_energy=-29.5310001373291 stress="-0.018294019624590874 0.01570766046643257 -0.011607752181589603 0.01570766046643257 0.0031478479504585266 0.004605662077665329 -0.011607752181589603 0.004605662077665329 -0.017258785665035248" pbc="T T T"
Al       1.54701075       0.87273543       2.46070917        0       0.71855764      -0.11584286       0.49435368       1.07476842      -0.28505754       1.06925511
Al      -0.01761625       1.84389395       5.05391116        1       0.19346371       0.17720479      -0.69190074       0.23187710      -0.07942022      -1.16825235
N        1.56395350       0.94331118       4.45961394        2       0.32487451      -0.12409467      -0.51346285      -0.11547178      -0.20503172      -0.72920150
N        0.06831344       1.75176767       1.87546335        3      -1.23689588       0.06273275       0.71100990      -1.19117367       0.56950969       0.82819891
4
Lattice="3.128588 0.0 0.0 -1.5642939988088433 2.709436998432005 0.0 0.0 0.0 5.016955" Properties=species:S:1:pos:R:3:spacegroup_kinds:I:1:momenta:R:3:forces:R:3 spacegroup="P 1" unit_cell=conventional occupancy="_JSON {\"0\": {\"Al\": 1}, \"1\": {\"Al\": 1}, \"2\": {\"N\": 1}, \"3\": {\"N\": 1}}" energy=-29.61321258544922 free_energy=-29.61321258544922 stress="-0.008381716907024384 -0.004276588559150696 0.005492871161550283 -0.004276588559150696 -0.0139371482655406 0.001480432809330523 0.005492871161550283 0.001480432809330523 0.01247536763548851" pbc="T T T"
Al       1.57767908       0.87033378       2.48321565        0       0.42145829      -0.10085990       0.75449342      -0.50598741       0.14215209       0.64867717
Al       0.00878680       1.84488742       5.00616578        1       0.94842469       0.04829645      -0.67234671      -0.28191131      -0.37569803       0.05942703
N        1.54733738       0.91884310       4.41695252        2      -0.50233556      -0.06173785      -0.86681581       0.26756901       0.16352558       0.34766686
N       -0.02491944       1.77881435       1.96659663        3      -0.86754744       0.11430131       0.78466912       0.52032995       0.07002039      -1.05577087
4
Lattice="3.128588 0.0 0.0 -1.5642939988088433 2.709436998432005 0.0 0.0 0.0 5.016955" Properties=species:S:1:pos:R:3:spacegroup_kinds:I:1:momenta:R:3:forces:R:3 spacegroup="P 1" unit_cell=conventional occupancy="_JSON {\"0\": {\"Al\": 1}, \"1\": {\"Al\": 1}, \"2\": {\"N\": 1}, \"3\": {\"N\": 1}}" energy=-29.55784034729004 free_energy=-29.55784034729004 stress="-0.01636357232928276 -0.0029474750626832247 0.012903688475489616 -0.0029474750626832247 -0.006207502447068691 0.0015375539660453796 0.012903688475489616 0.0015375539660453796 -0.0027148716617375612" pbc="T T T"
Al       1.59068812       0.88023428       2.52274583        0      -0.41625574       0.17886957       0.33160718      -0.90884161      -0.14030637      -0.36868230
Al       0.01872289       1.83477378       4.97781992        1       0.14973972      -0.20763060      -0.17578522      -0.72829592      -0.10046168       0.72653210
N        1.52039170       0.92489998       4.39464374        2       0.19754349       0.25939925       0.47781812       0.72475827      -0.09605090       0.71573865
N       -0.04216861       1.77342021       1.96745696        3       0.06897252      -0.23063826      -0.63364011       0.91237903       0.33681908      -1.07358861
4
Lattice="3.128588 0.0 0.0 -1.5642939988088433 2.709436998432005 0.0 0.0 0.0 5.016955" Properties=species:S:1:pos:R:3:spacegroup_kinds:I:1:momenta:R:3:forces:R:3 spacegroup="P 1" unit_cell=conventional occupancy="_JSON {\"0\": {\"Al\": 1}, \"1\": {\"Al\": 1}, \"2\": {\"N\": 1}, \"3\": {\"N\": 1}}" energy=-29.621109008789062 free_energy=-29.621109008789062 stress="-0.02150060422718525 0.005276456009596586 -0.003267475636675954 0.005276456009596586 0.010657958686351776 0.001925202552229166 -0.003267475636675954 0.001925202552229166 -0.0015899859135970473" pbc="T T T"
Al       1.54767651       0.89587758       2.50832853        0      -0.85809920       0.46896453      -1.00003010       0.39160594      -0.39029279      -0.15031634
Al       0.00665800       1.82067518       5.00342495        1      -0.72966974      -0.11082564       1.46536682      -0.00950356       0.22696984       0.34862399
N        1.57185929       0.94293300       4.45440721        2       0.62349886      -0.37686583       0.64593176      -0.01969438      -0.43335313      -0.83889878
N        0.01256031       1.75229420       1.88600537        3       0.96427008       0.01872692      -1.11126853      -0.36240792       0.59667611       0.64059144
4
Lattice="3.128588 0.0 0.0 -1.5642939988088433 2.709436998432005 0.0 0.0 0.0 5.016955" Properties=species:S:1:pos:R:3:spacegroup_kinds:I:1:momenta:R:3:forces:R:3 spacegroup="P 1" unit_cell=conventional occupancy="_JSON {\"0\": {\"Al\": 1}, \"1\": {\"Al\": 1}, \"2\": {\"N\": 1}, \"3\": {\"N\": 1}}" energy=-29.520856857299805 free_energy=-29.520856857299805 stress="-0.014047356322407722 0.011820954270660877 -0.014255546033382416 0.011820954270660877 -0.005614512600004673 0.009361504577100277 -0.014255546033382416 0.009361504577100277 -0.019571073353290558" pbc="T T T"
Al       1.52999431       0.91403911       2.46474570        0       0.09545082      -0.23101196      -1.18071284       1.21875191      -0.63577211       0.99289787
Al      -0.00890656       1.82180738       5.05208963        1       0.31216946      -0.10747456       0.45537665       0.39472812      -0.38378587      -1.12710190
N        1.59437711       0.88605552       4.45928984        2      -0.04799041      -0.53350328      -0.20523279      -0.40810597       0.35579067      -0.79021573
N        0.05384443       1.77207219       1.87145002        3      -0.35962984       0.87198980       0.93056894      -1.20537400       0.66376716       0.92442000
4
Lattice="3.128588 0.0 0.0 -1.5642939988088433 2.709436998432005 0.0 0.0 0.0 5.016955" Properties=species:S:1:pos:R:3:spacegroup_kinds:I:1:momenta:R:3:forces:R:3 spacegroup="P 1" unit_cell=conventional occupancy="_JSON {\"0\": {\"Al\": 1}, \"1\": {\"Al\": 1}, \"2\": {\"N\": 1}, \"3\": {\"N\": 1}}" energy=-29.61878776550293 free_energy=-29.61878776550293 stress="0.010117631405591965 -0.0018220710335299373 -0.0018730381270870566 -0.0018220710335299373 -0.024783039465546608 0.004591092001646757 -0.0018730381270870566 0.004591092001646757 2.6324149075662717e-05" pbc="T T T"
Al       1.53818032       0.90928016       2.47247634        0       0.23228452      -0.27447180       1.41733331       0.21200870       0.18702157       0.85530674
Al       0.01802691       1.81430746       5.03506510        1       0.60360844      -0.42930371      -1.11140754       0.03760239      -0.69444197      -0.55142540
N        1.59518010       0.85128048       4.42414645        2       0.09084589       0.02420765      -0.77345513      -0.19470346       0.84070623       0.01228286
N       -0.01452981       1.83034430       1.92467357        3      -0.92673882       0.67956785       0.46752939      -0.05490774      -0.33328575      -0.31616426
4
Lattice="3.128588 0.0 0.0 -1.5642939988088433 2.709436998432005 0.0 0.0 0.0 5.016955" Properties=species:S:1:pos:R:3:spacegroup_kinds:I:1:momenta:R:3:forces:R:3 spacegroup="P 1" unit_cell=conventional occupancy="_JSON {\"0\": {\"Al\": 1}, \"1\": {\"Al\": 1}, \"2\": {\"N\": 1}, \"3\": {\"N\": 1}}" energy=-29.623743057250977 free_energy=-29.623743057250977 stress="0.004300572443753481 -0.008672507479786873 0.0028818699065595865 -0.008672507479786873 -0.0069435965269804 -0.004434523638337851 0.0028818699065595865 -0.004434523638337851 -0.014838898554444313" pbc="T T T"
Al       1.54321201       0.89379625       2.53645984        0      -0.00705412      -0.41529131       0.79444887      -0.25250366       0.39302978      -0.87834275
Al       0.03580899       1.79893951       4.98957803        1       0.09337919      -0.29525175      -0.61191834      -0.16601121       0.14058234       0.62744820
N        1.59619753       0.90645099       4.40111845        2      -0.02189816       1.09350659       0.27120787      -0.08899594      -0.09593993       0.34911150
N       -0.05911254       1.83464200       1.91219260        3      -0.06442689      -0.38296354      -0.45373840       0.50751090      -0.43767229      -0.09821726
