4
Lattice="3.128588 0.0 0.0 -1.5642939988088433 2.709436998432005 0.0 0.0 0.0 5.016955" Properties=species:S:1:pos:R:3:spacegroup_kinds:I:1:forces:R:3 spacegroup="P 1" unit_cell=conventional occupancy="_JSON {\"0\": {\"Al\": 1}, \"1\": {\"Al\": 1}, \"2\": {\"N\": 1}, \"3\": {\"N\": 1}}" energy=-29.673717498779297 free_energy=-29.673717498779297 stress="-0.0022252961061894894 -1.3806012475470197e-06 -5.6132222425731015e-08 -1.3806012475470197e-06 -0.0022274362854659557 -1.7737299629061454e-08 -5.6132222425731015e-08 -1.7737299629061454e-08 -0.005453737918287516" pbc="T T T"
Al       1.56429556       0.90314476       2.50490041        0      -0.00003386       0.00002073       0.00553206
Al      -0.00000156       1.80629224       5.01337791        1       0.00003500      -0.00002020       0.00552376
N        1.56429556       0.90314476       4.41849749        2      -0.00003686       0.00002043      -0.00553094
N       -0.00000156       1.80629224       1.91001999        3       0.00003572      -0.00002091      -0.00552442
