13
Lattice="7.26870274 0.0 0.0 3.634351370000001 6.294881225397555 0.0 3.634351370000001 2.0982937417991856 5.934870934989993" Properties=species:S:1:pos:R:3:spacegroup_kinds:I:1:forces:R:3 spacegroup="P 1" unit_cell=conventional occupancy="_JSON {\"0\": {\"Li\": 1}, \"1\": {\"Li\": 1}, \"2\": {\"Li\": 1}, \"3\": {\"Li\": 1}, \"4\": {\"Li\": 1}, \"5\": {\"Li\": 1}, \"6\": {\"P\": 1}, \"7\": {\"S\": 1}, \"8\": {\"S\": 1}, \"9\": {\"S\": 1}, \"10\": {\"S\": 1}, \"11\": {\"S\": 1}, \"12\": {\"Cl\": 1}}" energy=-53.3634147644043 free_energy=-53.3634147644043 stress="-0.0007942203083075583 -2.3803433180091815e-07 -1.5542534015366982e-07 -2.3803433180091815e-07 -0.0007939344504848123 -1.0772413361337385e-07 -1.5542534015366982e-07 -1.0772413361337385e-07 -0.0007939307834021747" pbc="T T T"
Li       9.25387995       7.24703237       3.10460814        0       0.00422620      -0.00243479       0.00344873
Li      12.55222827       5.34273008       5.79769826        1      -0.00421111       0.00243249      -0.00344129
Li       9.25387995       5.34273008       5.79769826        2       0.00422466       0.00243858      -0.00344664
Li      12.55222827       7.24703237       3.10460814        3      -0.00421141      -0.00243069       0.00344077
Li      10.90305411       4.39057894       3.10460814        4       0.00000262       0.00487597       0.00344871
Li      10.90305411       8.19918351       5.79769826        5       0.00000193      -0.00486322      -0.00344116
P        7.26870274       4.19658748       2.96743547        6       0.00008514       0.00004620       0.00003590
S        7.26870637       6.13578650       2.28182731        7      -0.00001897      -0.01090930       0.00384769
S        8.94810016       3.22699113       2.28182731        8      -0.00945843       0.00544052       0.00384709
S        5.58931258       3.22699113       2.28182731        9       0.00937829       0.00541385       0.00383021
S        7.26870637       4.19658958       5.02426588       10      -0.00001916      -0.00000984      -0.01157071
S       10.90305411       6.29488123       4.45115320       11      -0.00000091      -0.00000120      -0.00000021
Cl       0.00000000       0.00000000       0.00000000       12       0.00000115       0.00000143       0.00000088
