32
Lattice="6.17176593 0.0 0.0 0.0 8.01859859 0.0 0.0 0.0 13.03281824" Properties=species:S:1:pos:R:3:spacegroup_kinds:I:1:forces:R:3 spacegroup="P 1" unit_cell=conventional occupancy="_JSON {\"0\": {\"Li\": 1}, \"1\": {\"Li\": 1}, \"2\": {\"Li\": 1}, \"3\": {\"Li\": 1}, \"4\": {\"Li\": 1}, \"5\": {\"Li\": 1}, \"6\": {\"Li\": 1}, \"7\": {\"Li\": 1}, \"8\": {\"Li\": 1}, \"9\": {\"Li\": 1}, \"10\": {\"Li\": 1}, \"11\": {\"Li\": 1}, \"12\": {\"P\": 1}, \"13\": {\"P\": 1}, \"14\": {\"P\": 1}, \"15\": {\"P\": 1}, \"16\": {\"S\": 1}, \"17\": {\"S\": 1}, \"18\": {\"S\": 1}, \"19\": {\"S\": 1}, \"20\": {\"S\": 1}, \"21\": {\"S\": 1}, \"22\": {\"S\": 1}, \"23\": {\"S\": 1}, \"24\": {\"S\": 1}, \"25\": {\"S\": 1}, \"26\": {\"S\": 1}, \"27\": {\"S\": 1}, \"28\": {\"S\": 1}, \"29\": {\"S\": 1}, \"30\": {\"S\": 1}, \"31\": {\"S\": 1}}" energy=-140.3463134765625 free_energy=-140.3463134765625 stress="-0.0028886087238788605 -5.364456434620024e-09 9.940191780799523e-09 -5.364456434620024e-09 -0.004072227515280247 -9.4777863335338e-10 9.940191780799523e-09 -9.4777863335338e-10 -0.002593569690361619" pbc="T T T"
Li       2.40166815       0.26892251       4.33377961        0      -0.01548992       0.00235968       0.00063452
Li       3.77009795       7.74967601       8.69903847        1       0.01548985      -0.00236149      -0.00063069
Li       5.48755106       7.74967602       2.18262938        2      -0.01549283      -0.00236029      -0.00063209
Li       0.68421478       0.26892249      10.85018871        3       0.01549104       0.00236119       0.00063190
Li       3.77009790       4.27822190       8.69903844        4       0.01548834       0.00235864      -0.00063270
Li       2.40166815       3.74037676       4.33377958        5      -0.01548988      -0.00236024       0.00063348
Li       0.68421479       3.74037683      10.85018872        6       0.01549017      -0.00236083       0.00063261
Li       5.48755105       4.27822187       2.18262934        7      -0.01549165       0.00235962      -0.00063071
Li       3.08588290      -0.00000016       0.00000011        8      -0.00000061       0.00000075       0.00000095
Li       0.00000001      -0.00000003       6.51640922        9       0.00000108       0.00000105      -0.00000099
Li       3.08588294       4.00929941       0.00000004       10      -0.00000240      -0.00000104       0.00000128
Li      -0.00000003       4.00929927       6.51640924       11      -0.00000001       0.00000086      -0.00000087
P        0.93932953       2.00464935       1.16793471       12      -0.00066715       0.00000974       0.03303523
P        5.23243626       6.01394888      11.86488427       13       0.00066509       0.00000047      -0.03306041
P        4.02521222       6.01394894       5.34847527       14      -0.00065090       0.00000068      -0.03306406
P        2.14655388       2.00464966       7.68434326       15       0.00064849      -0.00000270       0.03304960
S        5.07612359       2.00464961       1.30682513       16       0.00280280       0.00000003       0.01274796
S        1.09564236       6.01394885      11.72599292       17      -0.00280371       0.00000032      -0.01274768
S        1.99024092       6.01394895       5.20958391       18       0.00279230       0.00000042      -0.01274407
S        4.18152509       2.00464961       7.82323416       19      -0.00279523      -0.00000002       0.01274824
S        1.68772175       2.00464972      12.25093560       20       0.03397068       0.00000006       0.02524759
S        4.48404414       6.01394888       0.78188260       21      -0.03397284      -0.00000006      -0.02523682
S        4.77360472       6.01394892       7.29829153       22       0.03397249       0.00000086      -0.02523460
S        1.39816134       2.00464969       5.73452688       23      -0.03397037      -0.00000134       0.02524395
S        1.68016702       0.28147979       2.00960384       24       0.02273604      -0.00259692      -0.01691937
S        4.49159895       7.73711933      11.02321408       25      -0.02272864       0.00258528       0.01692410
S        4.76604994       7.73711931       4.50680504       26       0.02272808       0.00258157       0.01692820
S        1.40571575       0.28147950       8.52601311       27      -0.02272475      -0.00258154      -0.01692964
S        4.49159901       4.29077887      11.02321419       28      -0.02272944      -0.00258615       0.01692560
S        1.68016711       3.72781973       2.00960396       29       0.02273063       0.00258624      -0.01692356
S        1.40571577       3.72781972       8.52601314       30      -0.02272609       0.00258633      -0.01692539
S        4.76604995       4.29077867       4.50680509       31       0.02272929      -0.00258112       0.01692837
