56
Lattice="10.7619164 0.0 0.0 -9.665296305262016 4.732958053065482 0.0 -0.5483100463354086 -2.3664790220718444 10.484177494289693" Properties=species:S:1:pos:R:3:spacegroup_kinds:I:1:forces:R:3 spacegroup="P 1" unit_cell=conventional occupancy="_JSON {\"0\": {\"H\": 1}, \"1\": {\"H\": 1}, \"2\": {\"H\": 1}, \"3\": {\"H\": 1}, \"4\": {\"H\": 1}, \"5\": {\"H\": 1}, \"6\": {\"H\": 1}, \"7\": {\"H\": 1}, \"8\": {\"H\": 1}, \"9\": {\"H\": 1}, \"10\": {\"H\": 1}, \"11\": {\"H\": 1}, \"12\": {\"H\": 1}, \"13\": {\"H\": 1}, \"14\": {\"H\": 1}, \"15\": {\"H\": 1}, \"16\": {\"H\": 1}, \"17\": {\"H\": 1}, \"18\": {\"H\": 1}, \"19\": {\"H\": 1}, \"20\": {\"H\": 1}, \"21\": {\"H\": 1}, \"22\": {\"H\": 1}, \"23\": {\"H\": 1}, \"24\": {\"H\": 1}, \"25\": {\"H\": 1}, \"26\": {\"H\": 1}, \"27\": {\"H\": 1}, \"28\": {\"H\": 1}, \"29\": {\"H\": 1}, \"30\": {\"H\": 1}, \"31\": {\"H\": 1}, \"32\": {\"C\": 1}, \"33\": {\"C\": 1}, \"34\": {\"C\": 1}, \"35\": {\"C\": 1}, \"36\": {\"C\": 1}, \"37\": {\"C\": 1}, \"38\": {\"C\": 1}, \"39\": {\"C\": 1}, \"40\": {\"C\": 1}, \"41\": {\"C\": 1}, \"42\": {\"C\": 1}, \"43\": {\"C\": 1}, \"44\": {\"C\": 1}, \"45\": {\"C\": 1}, \"46\": {\"C\": 1}, \"47\": {\"C\": 1}, \"48\": {\"O\": 1}, \"49\": {\"O\": 1}, \"50\": {\"O\": 1}, \"51\": {\"O\": 1}, \"52\": {\"O\": 1}, \"53\": {\"O\": 1}, \"54\": {\"O\": 1}, \"55\": {\"O\": 1}}" energy=-315.2104187011719 free_energy=-315.2104187011719 stress="0.0014446229906752706 -0.0005628877552226186 7.109890987067047e-08 -0.0005628877552226186 -0.0008545927703380585 -7.539609470086361e-08 7.109890987067047e-08 -7.539609470086361e-08 0.0015755989588797092" pbc="T T T"
H       -0.01146673       2.27735377       1.83228363        0       0.05954348      -0.00327688       0.06233848
H        0.46354042      -0.32622645       8.65189388        1      -0.05491719       0.02317748      -0.06235547
H        7.11783644      -0.62125595       5.76730111        2       0.06303547      -0.00415113      -0.05874433
H        3.54784285       0.20590514       4.71687608        3      -0.05845466       0.02398643       0.05874012
H        5.94073498       0.08912526       3.40980510        4      -0.05953851       0.00327706      -0.06233689
H        4.91741780       0.32622655       7.07437240        5       0.05491289      -0.02316934       0.06236339
H       -1.73687825       0.62125612       9.95896513        6      -0.06303777       0.00415837       0.05874469
H        2.38142539       2.16057389       0.52521270        7       0.05845526      -0.02398791      -0.05874394
H       -1.38551754       1.18149074       2.11598469        8      -0.01114967       0.08955002       0.00594698
H       -8.44966010       2.81824229       8.36819219        9       0.04931353       0.07553610      -0.00592629
H       -2.58205883       2.70548917       6.85853646       10       0.02489283       0.08117916       0.03102843
H       -6.70482302       3.66072964       3.62563946       11       0.01337825       0.08383636      -0.03101417
H       -3.44713062       1.18498829       3.12610408       12       0.01115959      -0.08955099      -0.00594419
H       -6.59659445       1.91471578       7.35807408       13      -0.04930680      -0.07554515       0.00593390
H       -1.70227922       2.02746897       8.86772962       14      -0.02490150      -0.08118919      -0.03099526
H       -7.79312146       3.43870742       1.61644925       15      -0.01337405      -0.08383915       0.03100589
H       -0.77623955       0.71965044       4.36329758       16      -0.01323451      -0.01213593       0.02308589
H        1.56195590       2.67141835       6.12088030       17       0.00653425      -0.01672773      -0.02309644
H       -0.46326720       1.89389614       6.16073604       18       0.01919685      -0.01968157       0.01018708
H        0.70065483      -0.86930480       4.32344242       19      -0.02583103      -0.00920612      -0.01018474
H        6.70550785       1.64682866       0.87879114       20       0.01323227       0.01213463      -0.02308455
H       -5.84629404       2.06153966       9.60538593       21      -0.00653609       0.01672579       0.02309504
H        5.84422537      -1.89389611       9.56553024       22      -0.01919033       0.01966932      -0.01017807
H       -5.53330302       3.23578383       0.91864627       23       0.02584108       0.00921529       0.01018930
H        0.25118892       0.51320652       1.94904364       24      -0.01400527      -0.01703830      -0.02868782
H       -0.54820846      -1.79509606       8.53513266       25       0.00518967      -0.02145217       0.02867852
H       -2.80824660       2.46883416       5.11321222       26      -0.03240753      -0.01272135       0.00990914
H       -6.60574339       3.34870703       5.37096440       27       0.02347779      -0.02566868      -0.00992442
H       -5.08383702       1.85327247       3.29304512       28       0.01400341       0.01703891       0.02868833
H       -4.83274950       1.79509621       7.19113351       29      -0.00520874       0.02144523      -0.02866504
H       -0.92778153       4.63060280       0.12887636       30       0.03241010       0.01272184      -0.00991086
H        2.32140525       1.38425108      10.35530180       31      -0.02347576       0.02567097       0.00991882
C       -0.12855713       1.44666451       3.84724416       32      -0.06474452      -0.02297643       0.02711099
C        0.20337421      -1.12376651       6.63693319       33       0.04808385      -0.04911402      -0.02706045
C       -0.77313050       2.84277400       5.69386794       34       0.01803160      -0.04222307       0.05795873
C        1.39625478      -0.15339354       4.79030936       35      -0.03474197      -0.02991128      -0.05791887
C        6.05782526       0.91981440       1.39484459       36       0.06475981       0.02297541      -0.02710554
C       -5.58433219       1.12376664       9.08933302       37      -0.04809015       0.04911353       0.02707848
C       -3.51120742       1.89018398      10.03239814       38      -0.01806849       0.04223165      -0.05796608
C        4.53301351       2.51987246       0.45177956       39       0.03474686       0.02992377       0.05791000
C       -0.32629465       1.35816528       2.34320612       40       0.01375726       0.00373787      -0.01267463
C        0.34204072      -1.29021280       8.14097360       41      -0.01072507       0.00946498       0.01264027
C       -2.26788798       3.05478921       5.86652618       42      -0.01084447       0.00948934      -0.01263953
C        2.83194263      -0.62035934       4.61765398       43       0.01386484       0.00376189       0.01261184
C        6.25556282       1.00831376       2.89888263       44      -0.01376837      -0.00373758       0.01266678
C       -5.72299917       1.29021260       7.58529265       45       0.01074423      -0.00945064      -0.01267739
C       -2.01645027       1.67816877       9.85974052       46       0.01086673      -0.00949204       0.01260858
C        3.09732574       2.98683832       0.62443475       47      -0.01388565      -0.00375918      -0.01259632
O       -0.42617556       2.75832690       4.28195553       48      -0.00160887      -0.01560064      -0.00606857
O        1.04750943      -0.07664205       6.20222131       49      -0.00535107      -0.01474442       0.00606418
O       -1.17299332      -0.80891944       6.27987374       50      -0.00939934      -0.01381674      -0.00193581
O        1.24603231       1.12411994       4.20430308       51       0.00225542      -0.01656835       0.00193527
O       -3.30985251       4.34111018       0.96013315       52       0.00160941       0.01560205       0.00605939
O        4.33344870       0.07664205       9.52404498       53       0.00534993       0.01474136      -0.00606681
O       -4.20796492       0.80891948       9.44639258       54       0.00941695       0.01382385       0.00193568
O        4.68323599       1.24235916       1.03778561       55      -0.00226693       0.01654640      -0.00193177
