4
Lattice="3.128588 0.0 0.0 -1.5642939988088433 2.709436998432005 0.0 0.0 0.0 5.016955" Properties=species:S:1:pos:R:3:spacegroup_kinds:I:1:momenta:R:3:forces:R:3 spacegroup="P 1" unit_cell=conventional occupancy="_JSON {\"0\": {\"Al\": 1}, \"1\": {\"Al\": 1}, \"2\": {\"N\": 1}, \"3\": {\"N\": 1}}" energy=-29.62373924255371 free_energy=-29.62373924255371 stress="0.004300284199416637 -0.00867264810949564 0.002882080851122737 -0.00867264810949564 -0.006943824701011181 -0.004434430040419102 0.002882080851122737 -0.004434430040419102 -0.014838979579508305" pbc="T T T"
Al       1.54321201       0.89379619       2.53645979        0      -0.00705421      -0.41529146       0.79444973      -0.25250268       0.39303109      -0.87834448
Al       0.03580898       1.79893953       4.98957805        1       0.09337952      -0.29525111      -0.61191952      -0.16601300       0.14058128       0.62745440
N        1.59619761       0.90645095       4.40111848        2      -0.02189822       1.09350651       0.27120857      -0.08899643      -0.09593669       0.34911674
N       -0.05911264       1.83464212       1.91219265        3      -0.06442708      -0.38296398      -0.45373893       0.50751209      -0.43767592      -0.09822683
