4
Lattice="3.128588 0.0 0.0 -1.5642939988088433 2.709436998432005 0.0 0.0 0.0 5.016955" Properties=species:S:1:pos:R:3:spacegroup_kinds:I:1:momenta:R:3:forces:R:3 spacegroup="P 1" unit_cell=conventional occupancy="_JSON {\"0\": {\"Al\": 1}, \"1\": {\"Al\": 1}, \"2\": {\"N\": 1}, \"3\": {\"N\": 1}}" energy=-29.673717498779297 free_energy=-29.673717498779297 stress="-0.0022254001814872026 -1.508869218014297e-06 -1.2366441204392231e-08 -1.508869218014297e-06 -0.0022275096271187067 -6.842412858532043e-08 -1.2366441204392231e-08 -6.842412858532043e-08 -0.0054537151008844376" pbc="T T T"
Al       1.56429556       0.90314476       2.50490041        0       0.68448204       0.53670047       0.91071479      -0.00003587       0.00002065       0.00553069
Al      -0.00000156       1.80629224       5.01337791        1       0.31075784       0.39520501      -1.87833745       0.00003539      -0.00001926       0.00552548
N        1.56429556       0.90314476       4.41849749        2      -0.23293981      -0.79739853      -0.40745139      -0.00003741       0.00001976      -0.00553106
N       -0.00000156       1.80629224       1.91001999        3      -0.76230006      -0.13450696       1.37507406       0.00003788      -0.00002099      -0.00552515
4
Lattice="3.128588 0.0 0.0 -1.5642939988088433 2.709436998432005 0.0 0.0 0.0 5.016955" Properties=species:S:1:pos:R:3:spacegroup_kinds:I:1:momenta:R:3:forces:R:3 spacegroup="P 1" unit_cell=conventional occupancy="_JSON {\"0\": {\"Al\": 1}, \"1\": {\"Al\": 1}, \"2\": {\"N\": 1}, \"3\": {\"N\": 1}}" energy=-29.43359375 free_energy=-29.43359375 stress="-0.013773548416793346 -0.01644645817577839 0.012948797084391117 -0.01644645817577839 -0.023968778550624847 0.009969739243388176 0.012948797084391117 0.009969739243388176 -0.012059492990374565" pbc="T T T"
Al       1.60246141       0.92231284       2.54150849        0       0.57498207      -0.13491974       1.02882469      -1.31301355      -0.49033353      -0.87831354
Al       0.00328788       1.81111139       4.94718774        1      -0.44725803       0.00118062      -1.07867316      -0.30154145      -0.59423184       1.18011796
N        1.53678588       0.85870779       4.38099594        2       0.14052034      -0.46066743       0.20203874       0.28490731       0.67984402       1.25553632
N       -0.05228245       1.80432670       2.00436660        3      -0.26824443       0.59440655      -0.15219030       1.32964802       0.40472147      -1.55734062
4
Lattice="3.128588 0.0 0.0 -1.5642939988088433 2.709436998432005 0.0 0.0 0.0 5.016955" Properties=species:S:1:pos:R:3:spacegroup_kinds:I:1:momenta:R:3:forces:R:3 spacegroup="P 1" unit_cell=conventional occupancy="_JSON {\"0\": {\"Al\": 1}, \"1\": {\"Al\": 1}, \"2\": {\"N\": 1}, \"3\": {\"N\": 1}}" energy=-29.567256927490234 free_energy=-29.567256927490234 stress="0.012915723025798798 0.0017026084242388606 0.003579319454729557 0.0017026084242388606 -0.025857161730527878 -0.005369140300899744 0.003579319454729557 -0.005369140300899744 -0.011435343883931637" pbc="T T T"
Al       1.59598185       0.90138486       2.55101265        0      -0.85003979      -0.64755200      -0.41676291      -0.33522570       0.74370325      -1.26921332
Al      -0.01311799       1.79082858       4.96769658        1      -0.24557010      -0.74327768       1.65595782      -0.18280245      -0.17026818       1.21499681
N        1.52960408       0.86779350       4.41996342        2       0.16413057       0.60763549       0.63654577       0.31887668       0.39321399      -0.09056885
N       -0.00060094       1.87475190       1.90756520        3       0.93147929       0.78319423      -1.87574068       0.19915140      -0.96664917       0.14478546
4
Lattice="3.128588 0.0 0.0 -1.5642939988088433 2.709436998432005 0.0 0.0 0.0 5.016955" Properties=species:S:1:pos:R:3:spacegroup_kinds:I:1:momenta:R:3:forces:R:3 spacegroup="P 1" unit_cell=conventional occupancy="_JSON {\"0\": {\"Al\": 1}, \"1\": {\"Al\": 1}, \"2\": {\"N\": 1}, \"3\": {\"N\": 1}}" energy=-29.406272888183594 free_energy=-29.406272888183594 stress="0.010688770562410355 0.016498180106282234 -0.008164027705788612 0.016498180106282234 -0.009423108771443367 -0.015554003417491913 -0.008164027705788612 -0.015554003417491913 -0.06125398352742195" pbc="T T T"
Al       1.53423927       0.87298460       2.51007452        0      -1.60925401       0.09619213      -1.03262281       0.74608850       1.00298691       0.03482414
Al      -0.01349003       1.78470222       5.05709165        1       0.21561246      -0.04339797       1.72443260       0.02271174       0.40732932      -1.66436911
N        1.55208974       0.92225129       4.42203509        2       0.38659385       0.63935810      -0.93002917       0.04495845      -0.39009669      -0.56986201
N        0.09667398       1.88681820       1.81230436        3       1.00704768      -0.69215225       0.23821939      -0.81375849      -1.02021956       2.19940686
4
Lattice="3.128588 0.0 0.0 -1.5642939988088433 2.709436998432005 0.0 0.0 0.0 5.016955" Properties=species:S:1:pos:R:3:spacegroup_kinds:I:1:momenta:R:3:forces:R:3 spacegroup="P 1" unit_cell=conventional occupancy="_JSON {\"0\": {\"Al\": 1}, \"1\": {\"Al\": 1}, \"2\": {\"N\": 1}, \"3\": {\"N\": 1}}" energy=-29.201902389526367 free_energy=-29.201902389526367 stress="-0.026440950110554695 0.038155436515808105 -0.03138267993927002 0.038155436515808105 -0.0048773400485515594 0.0015438208356499672 -0.03138267993927002 0.0015438208356499672 -0.0518198236823082" pbc="T T T"
Al       1.49382401       0.87740194       2.48150489        0      -0.08661649      -0.02748780       0.25595559       2.48428297      -0.46186948       1.22611952
Al      -0.02076736       1.79337851       5.08843293        1       0.00716719       0.60209022      -1.27068334       0.64723134       0.57433355      -2.36004210
N        1.60157221       0.96971682       4.33361320        2       0.49437292       0.53651061      -0.17473358      -0.53882372      -0.70145249       1.74609041
N        0.13924908       1.81421454       1.89535169        3      -0.41492359      -1.11111302       1.18946133      -2.59269118       0.58898830      -0.61216760
4
Lattice="3.128588 0.0 0.0 -1.5642939988088433 2.709436998432005 0.0 0.0 0.0 5.016955" Properties=species:S:1:pos:R:3:spacegroup_kinds:I:1:momenta:R:3:forces:R:3 spacegroup="P 1" unit_cell=conventional occupancy="_JSON {\"0\": {\"Al\": 1}, \"1\": {\"Al\": 1}, \"2\": {\"N\": 1}, \"3\": {\"N\": 1}}" energy=-29.574626922607422 free_energy=-29.574626922607422 stress="-0.02361815981566906 -0.014321228489279747 -0.011127942241728306 -0.014321228489279747 0.01503005065023899 -0.0028546222019940615 -0.011127942241728306 -0.0028546222019940615 -0.014440403319895267" pbc="T T T"
Al       1.53421961       0.88369270       2.53780582        0       1.55944072       0.36820848       1.55970989       0.29264301      -0.24000552      -0.91367805
Al      -0.00048007       1.82107762       4.98837341        1       1.01688567       0.86374273      -2.47525401       0.94369614       0.52251786       0.78486598
N        1.63583967       0.96584650       4.40663185        2      -0.31021888      -0.52489280       1.27117401      -1.15103865      -0.78907377       0.05687877
N       -0.01177522       1.75252285       1.90648733        3      -2.26610752      -0.70705842      -0.35562988      -0.08530059       0.50656152       0.07193299
4
Lattice="3.128588 0.0 0.0 -1.5642939988088433 2.709436998432005 0.0 0.0 0.0 5.016955" Properties=species:S:1:pos:R:3:spacegroup_kinds:I:1:momenta:R:3:forces:R:3 spacegroup="P 1" unit_cell=conventional occupancy="_JSON {\"0\": {\"Al\": 1}, \"1\": {\"Al\": 1}, \"2\": {\"N\": 1}, \"3\": {\"N\": 1}}" energy=-29.372068405151367 free_energy=-29.372068405151367 stress="-0.005629505030810833 -0.018719656392931938 0.01584944687783718 -0.018719656392931938 -0.0322725772857666 0.01721217855811119 0.01584944687783718 0.01721217855811119 -0.0072982339188456535" pbc="T T T"
Al       1.57072835       0.88046442       2.56331974        0      -0.00039223      -0.37629492      -0.57844090      -1.34386504      -0.44065857      -1.50707793
Al       0.05055072       1.86456077       4.94968571        1       0.52727016       0.77034158       1.04960286      -0.49128664      -1.36433518       1.82584608
N        1.58204800       0.88176662       4.44992391        2      -0.27832251      -1.02263389      -0.55459289       0.15003294       1.16375756      -0.85894620
N       -0.12661088       1.75915461       1.88869865        3      -0.24855543       0.62858723       0.08343086       1.68511832       0.64123607       0.54017758
4
Lattice="3.128588 0.0 0.0 -1.5642939988088433 2.709436998432005 0.0 0.0 0.0 5.016955" Properties=species:S:1:pos:R:3:spacegroup_kinds:I:1:momenta:R:3:forces:R:3 spacegroup="P 1" unit_cell=conventional occupancy="_JSON {\"0\": {\"Al\": 1}, \"1\": {\"Al\": 1}, \"2\": {\"N\": 1}, \"3\": {\"N\": 1}}" energy=-29.596923828125 free_energy=-29.596923828125 stress="0.01597638428211212 -0.004506045486778021 0.006018671672791243 -0.004506045486778021 -0.025499388575553894 -0.004597148392349482 0.006018671672791243 -0.004597148392349482 -0.010013969615101814" pbc="T T T"
Al       1.53284808       0.86390067       2.51395075        0      -1.59464519      -0.16469643      -1.74991343      -0.27820849       0.89915860      -0.15420589
Al       0.06317843       1.83227864       5.00948385        1       0.38440024      -1.80666560       1.59449974      -0.58708429      -0.41271698       0.16725098
N        1.58572476       0.89623784       4.41422576        2       0.14193146       1.12964911      -0.09119164       0.25704131       0.38076669       0.00228089
N       -0.08152109       1.83862424       1.90381439        3       1.06831344       0.84171293       0.24660529       0.60825133      -0.86720836      -0.01532590
4
Lattice="3.128588 0.0 0.0 -1.5642939988088433 2.709436998432005 0.0 0.0 0.0 5.016955" Properties=species:S:1:pos:R:3:spacegroup_kinds:I:1:momenta:R:3:forces:R:3 spacegroup="P 1" unit_cell=conventional occupancy="_JSON {\"0\": {\"Al\": 1}, \"1\": {\"Al\": 1}, \"2\": {\"N\": 1}, \"3\": {\"N\": 1}}" energy=-29.46255111694336 free_energy=-29.46255111694336 stress="-0.0056969765573740005 0.010849470272660255 -0.00390670308843255 0.010849470272660255 -0.019133737310767174 -0.012703463435173035 -0.00390670308843255 -0.012703463435173035 -0.011871392838656902" pbc="T T T"
Al       1.48347330       0.88264396       2.44527927        0      -0.30454526       1.01149531      -0.60004523       0.88393110       0.95768291       1.70777512
Al       0.06164410       1.77681260       5.07306077        1      -0.86715276      -0.75617402       0.43048886      -0.30080581       0.71654963      -1.72281432
N        1.61717709       0.94947181       4.40498422        2       0.38645857       0.04830117       0.18623231      -0.07234030      -0.67485720       0.48911756
N       -0.01486933       1.85626148       1.92266697        3       0.78523940      -0.30362245      -0.01667595      -0.51078498      -0.99937510      -0.47407866
4
Lattice="3.128588 0.0 0.0 -1.5642939988088433 2.709436998432005 0.0 0.0 0.0 5.016955" Properties=species:S:1:pos:R:3:spacegroup_kinds:I:1:momenta:R:3:forces:R:3 spacegroup="P 1" unit_cell=conventional occupancy="_JSON {\"0\": {\"Al\": 1}, \"1\": {\"Al\": 1}, \"2\": {\"N\": 1}, \"3\": {\"N\": 1}}" energy=-29.518747329711914 free_energy=-29.518747329711914 stress="-0.02337084710597992 0.006539896596223116 -0.01609807461500168 0.006539896596223116 0.00669728172942996 -0.0004824774223379791 -0.01609807461500168 -0.0004824774223379791 -0.0221602413803339" pbc="T T T"
Al       1.50607638       0.94974321       2.46463697        0       1.15921314       0.62635187       1.50690008       1.24247551      -0.60704476       1.15697265
Al       0.01335469       1.75088040       5.06242871        1      -0.91112057       0.14825231      -0.88962833       0.51474798       0.69610822      -1.43088388
N        1.62637958       0.90489620       4.42127856        2      -0.14223509      -0.64065003       0.21498434      -0.71771860      -0.51824439      -0.07984753
N        0.02538011       1.82158362       1.88963028        3      -0.10585752      -0.13395412      -0.83225622      -1.03950477       0.42918086       0.35375878
4
Lattice="3.128588 0.0 0.0 -1.5642939988088433 2.709436998432005 0.0 0.0 0.0 5.016955" Properties=species:S:1:pos:R:3:spacegroup_kinds:I:1:momenta:R:3:forces:R:3 spacegroup="P 1" unit_cell=conventional occupancy="_JSON {\"0\": {\"Al\": 1}, \"1\": {\"Al\": 1}, \"2\": {\"N\": 1}, \"3\": {\"N\": 1}}" energy=-29.605009078979492 free_energy=-29.605009078979492 stress="0.0015958234434947371 -0.006785973906517029 -0.003095375606790185 -0.006785973906517029 0.0017804274102672935 0.0017242026515305042 -0.003095375606790185 0.0017242026515305042 -0.02311360090970993" pbc="T T T"
Al       1.56693925       0.93861029       2.54470913        0       1.44875355      -0.98943889       1.48437400      -0.01659280      -0.29131523      -1.20301211
Al      -0.01304572       1.78057346       4.99752444        1       0.01689771       1.11024962      -1.70730007       0.38438588       0.02358571       0.50762504
N        1.58384203       0.87104973       4.42155577        2      -0.67927460      -0.02704935      -0.19037135      -0.39236763       0.15177572      -0.39793783
N        0.00122213       1.81989280       1.85992055        3      -0.78637672      -0.09376136       0.41329736       0.02457447       0.11595360       1.09332478
4
Lattice="3.128588 0.0 0.0 -1.5642939988088433 2.709436998432005 0.0 0.0 0.0 5.016955" Properties=species:S:1:pos:R:3:spacegroup_kinds:I:1:momenta:R:3:forces:R:3 spacegroup="P 1" unit_cell=conventional occupancy="_JSON {\"0\": {\"Al\": 1}, \"1\": {\"Al\": 1}, \"2\": {\"N\": 1}, \"3\": {\"N\": 1}}" energy=-29.470205307006836 free_energy=-29.470205307006836 stress="0.003202985506504774 -0.01780153624713421 0.011838292703032494 -0.01780153624713421 -0.04134906455874443 0.007359957788139582 0.011838292703032494 0.007359957788139582 -0.005160346161574125" pbc="T T T"
Al       1.62755630       0.89950076       2.54516754        0       1.04970805      -0.99981898      -0.80202974      -1.41065204       0.15933172      -0.91778624
Al      -0.00757060       1.81703572       4.95606283        1      -0.03757992       0.11959869      -0.16512635      -0.26242489      -0.84351492       1.41445470
N        1.52756233       0.85151206       4.42065482        2      -0.42752200       0.29023029      -0.07965842       0.31765670       0.98894536      -0.00115265
N       -0.06966667       1.84442116       1.93994534        3      -0.58460621       0.58998999       1.04681447       1.35542035      -0.30476224      -0.49551567
4
Lattice="3.128588 0.0 0.0 -1.5642939988088433 2.709436998432005 0.0 0.0 0.0 5.016955" Properties=species:S:1:pos:R:3:spacegroup_kinds:I:1:momenta:R:3:forces:R:3 spacegroup="P 1" unit_cell=conventional occupancy="_JSON {\"0\": {\"Al\": 1}, \"1\": {\"Al\": 1}, \"2\": {\"N\": 1}, \"3\": {\"N\": 1}}" energy=-29.452987670898438 free_energy=-29.452987670898438 stress="-0.013224911876022816 -0.023750072345137596 0.007911461405456066 -0.023750072345137596 -0.04793159291148186 -0.007333239074796438 0.007911461405456066 -0.007333239074796438 0.028632819652557373" pbc="T T T"
Al       1.63184044       0.85684027       2.46693548        0      -0.97589034      -0.55899497      -1.34838459      -1.39010572       1.11026287       1.17303586
Al      -0.02377748       1.82170281       4.98999602        1      -0.28018826       0.45883548       1.28013577      -0.08532462       0.08283457       0.34697279
N        1.52792696       0.92957749       4.44479001        2       0.11446450       0.97873196       0.08012620       0.22036152      -0.17398855       0.05598621
N       -0.04718873       1.83921504       2.00086009        3       1.14161395      -0.87857248      -0.01187741       1.25506866      -1.01910853      -1.57599473
4
Lattice="3.128588 0.0 0.0 -1.5642939988088433 2.709436998432005 0.0 0.0 0.0 5.016955" Properties=species:S:1:pos:R:3:spacegroup_kinds:I:1:momenta:R:3:forces:R:3 spacegroup="P 1" unit_cell=conventional occupancy="_JSON {\"0\": {\"Al\": 1}, \"1\": {\"Al\": 1}, \"2\": {\"N\": 1}, \"3\": {\"N\": 1}}" energy=-29.536317825317383 free_energy=-29.536317825317383 stress="-0.019857537001371384 0.013828865252435207 -0.005717323161661625 0.013828865252435207 -0.003164128866046667 -0.0016710221534594893 -0.005717323161661625 -0.0016710221534594893 -0.006260477472096682" pbc="T T T"
Al       1.56291510       0.86348349       2.43836893        0      -1.44558886       0.38889173       0.34075014       0.67285836       0.11609370       1.45909691
Al      -0.01834144       1.83613137       5.05736571        1       0.19731513      -0.00921586       1.04742017       0.06595269       0.15003625      -1.19267333
N        1.54726692       0.95741146       4.47045643        2      -0.01023995       0.05685061       0.14844095       0.09761398      -0.44420969      -0.65174901
N        0.05576965       1.77068660       1.90062725        3       1.25851354      -0.43652652      -1.53661136      -0.83642489       0.17807972       0.38532537
4
Lattice="3.128588 0.0 0.0 -1.5642939988088433 2.709436998432005 0.0 0.0 0.0 5.016955" Properties=species:S:1:pos:R:3:spacegroup_kinds:I:1:momenta:R:3:forces:R:3 spacegroup="P 1" unit_cell=conventional occupancy="_JSON {\"0\": {\"Al\": 1}, \"1\": {\"Al\": 1}, \"2\": {\"N\": 1}, \"3\": {\"N\": 1}}" energy=-29.531003952026367 free_energy=-29.531003952026367 stress="-0.01829385757446289 0.015707548707723618 -0.011607651598751545 0.015707548707723618 0.003147911047562957 0.0046056234277784824 -0.011607651598751545 0.0046056234277784824 -0.017258932814002037" pbc="T T T"
Al       1.54701074       0.87273548       2.46070913        0       0.71855690      -0.11584415       0.49435409       1.07476568      -0.28505689       1.06925535
Al      -0.01761631       1.84389393       5.05391117        1       0.19346371       0.17720410      -0.69190266       0.23187578      -0.07942014      -1.16825151
N        1.56395351       0.94331123       4.45961403        2       0.32487508      -0.12409407      -0.51346221      -0.11547030      -0.20503168      -0.72920215
N        0.06831352       1.75176760       1.87546337        3      -1.23689584       0.06273410       0.71101072      -1.19117141       0.56950867       0.82819873
4
Lattice="3.128588 0.0 0.0 -1.5642939988088433 2.709436998432005 0.0 0.0 0.0 5.016955" Properties=species:S:1:pos:R:3:spacegroup_kinds:I:1:momenta:R:3:forces:R:3 spacegroup="P 1" unit_cell=conventional occupancy="_JSON {\"0\": {\"Al\": 1}, \"1\": {\"Al\": 1}, \"2\": {\"N\": 1}, \"3\": {\"N\": 1}}" energy=-29.61321449279785 free_energy=-29.61321449279785 stress="-0.008381743915379047 -0.004276623949408531 0.005492678377777338 -0.004276623949408531 -0.013936975039541721 0.0014804978854954243 0.005492678377777338 0.0014804978854954243 0.012475297786295414" pbc="T T T"
Al       1.57767907       0.87033375       2.48321565        0       0.42145902      -0.10086102       0.75449391      -0.50598562       0.14215317       0.64867032
Al       0.00878677       1.84488740       5.00616573        1       0.94842527       0.04829695      -0.67234635      -0.28191012      -0.37569624       0.05944179
N        1.54733740       0.91884313       4.41695258        2      -0.50233558      -0.06173869      -0.86681733       0.26756695       0.16352361       0.34766042
N       -0.02491943       1.77881444       1.96659673        3      -0.86754880       0.11430272       0.78466970       0.52032876       0.07001927      -1.05577242
4
Lattice="3.128588 0.0 0.0 -1.5642939988088433 2.709436998432005 0.0 0.0 0.0 5.016955" Properties=species:S:1:pos:R:3:spacegroup_kinds:I:1:momenta:R:3:forces:R:3 spacegroup="P 1" unit_cell=conventional occupancy="_JSON {\"0\": {\"Al\": 1}, \"1\": {\"Al\": 1}, \"2\": {\"N\": 1}, \"3\": {\"N\": 1}}" energy=-29.55784034729004 free_energy=-29.55784034729004 stress="-0.01636386848986149 -0.0029476697091013193 0.012903875671327114 -0.0029476697091013193 -0.006208040285855532 0.0015375709626823664 0.012903875671327114 0.0015375709626823664 -0.0027147987857460976" pbc="T T T"
Al       1.59068814       0.88023426       2.52274587        0      -0.41625572       0.17887095       0.33160790      -0.90883839      -0.14031032      -0.36868149
Al       0.01872290       1.83477378       4.97781989        1       0.14974072      -0.20763054      -0.17578498      -0.72829920      -0.10046361       0.72652853
N        1.52039171       0.92489995       4.39464370        2       0.19754288       0.25939897       0.47781858       0.72476023      -0.09604979       0.71574283
N       -0.04216869       1.77342030       1.96745703        3       0.06897204      -0.23063941      -0.63364153       0.91237730       0.33682370      -1.07358968
4
Lattice="3.128588 0.0 0.0 -1.5642939988088433 2.709436998432005 0.0 0.0 0.0 5.016955" Properties=species:S:1:pos:R:3:spacegroup_kinds:I:1:momenta:R:3:forces:R:3 spacegroup="P 1" unit_cell=conventional occupancy="_JSON {\"0\": {\"Al\": 1}, \"1\": {\"Al\": 1}, \"2\": {\"N\": 1}, \"3\": {\"N\": 1}}" energy=-29.621110916137695 free_energy=-29.621110916137695 stress="-0.021500850096344948 0.005276497919112444 -0.003267457243055105 0.005276497919112444 0.01065768301486969 0.0019248788012191653 -0.003267457243055105 0.0019248788012191653 -0.0015898654237389565" pbc="T T T"
Al       1.54767649       0.89587762       2.50832858        0      -0.85810046       0.46896579      -1.00003086       0.39160439      -0.39029193      -0.15032752
Al       0.00665804       1.82067516       5.00342494        1      -0.72966923      -0.11082637       1.46536839      -0.00949935       0.22696997       0.34863225
N        1.57185925       0.94293298       4.45440724        2       0.62349846      -0.37686535       0.64593229      -0.01969786      -0.43335283      -0.83890152
N        0.01256027       1.75229419       1.88600529        3       0.96427119       0.01872590      -1.11126989      -0.36240715       0.59667492       0.64059699
4
Lattice="3.128588 0.0 0.0 -1.5642939988088433 2.709436998432005 0.0 0.0 0.0 5.016955" Properties=species:S:1:pos:R:3:spacegroup_kinds:I:1:momenta:R:3:forces:R:3 spacegroup="P 1" unit_cell=conventional occupancy="_JSON {\"0\": {\"Al\": 1}, \"1\": {\"Al\": 1}, \"2\": {\"N\": 1}, \"3\": {\"N\": 1}}" energy=-29.520856857299805 free_energy=-29.520856857299805 stress="-0.014047583565115929 0.01182091236114502 -0.014255543239414692 0.01182091236114502 -0.0056147766299545765 0.009361620992422104 -0.014255543239414692 0.009361620992422104 -0.019571129232645035" pbc="T T T"
Al       1.52999424       0.91403918       2.46474568        0       0.09545014      -0.23101241      -1.18071468       1.21875477      -0.63577151       0.99289954
Al      -0.00890653       1.82180734       5.05208967        1       0.31216852      -0.10747466       0.45537738       0.39472446      -0.38378608      -1.12710285
N        1.59437708       0.88605553       4.45928987        2      -0.04798943      -0.53350306      -0.20523344      -0.40810239       0.35579047      -0.79021502
N        0.05384449       1.77207213       1.87144996        3      -0.35962924       0.87199012       0.93057066      -1.20537663       0.66376722       0.92441845
4
Lattice="3.128588 0.0 0.0 -1.5642939988088433 2.709436998432005 0.0 0.0 0.0 5.016955" Properties=species:S:1:pos:R:3:spacegroup_kinds:I:1:momenta:R:3:forces:R:3 spacegroup="P 1" unit_cell=conventional occupancy="_JSON {\"0\": {\"Al\": 1}, \"1\": {\"Al\": 1}, \"2\": {\"N\": 1}, \"3\": {\"N\": 1}}" energy=-29.61878776550293 free_energy=-29.61878776550293 stress="0.010117744095623493 -0.0018220352940261364 -0.001873205997981131 -0.0018220352940261364 -0.024782909080386162 0.004591168835759163 -0.001873205997981131 0.004591168835759163 2.6383015210740268e-05" pbc="T T T"
Al       1.53818029       0.90928016       2.47247626        0       0.23228594      -0.27447379       1.41733332       0.21201485       0.18702540       0.85530007
Al       0.01802690       1.81430744       5.03506517        1       0.60360799      -0.42930278      -1.11140859       0.03760364      -0.69444215      -0.55142105
N        1.59518015       0.85128048       4.42414644        2       0.09084643       0.02420702      -0.77345469      -0.19470383       0.84070480       0.01228121
N       -0.01452983       1.83034435       1.92467362        3      -0.92674036       0.67956953       0.46752988      -0.05491456      -0.33328804      -0.31616023
4
Lattice="3.128588 0.0 0.0 -1.5642939988088433 2.709436998432005 0.0 0.0 0.0 5.016955" Properties=species:S:1:pos:R:3:spacegroup_kinds:I:1:momenta:R:3:forces:R:3 spacegroup="P 1" unit_cell=conventional occupancy="_JSON {\"0\": {\"Al\": 1}, \"1\": {\"Al\": 1}, \"2\": {\"N\": 1}, \"3\": {\"N\": 1}}" energy=-29.62373924255371 free_energy=-29.62373924255371 stress="0.004300284199416637 -0.00867264810949564 0.002882080851122737 -0.00867264810949564 -0.006943824701011181 -0.004434430040419102 0.002882080851122737 -0.004434430040419102 -0.014838979579508305" pbc="T T T"
Al       1.54321201       0.89379619       2.53645979        0      -0.00705421      -0.41529146       0.79444973      -0.25250268       0.39303109      -0.87834448
Al       0.03580898       1.79893953       4.98957805        1       0.09337952      -0.29525111      -0.61191952      -0.16601300       0.14058128       0.62745440
N        1.59619761       0.90645095       4.40111848        2      -0.02189822       1.09350651       0.27120857      -0.08899643      -0.09593669       0.34911674
N       -0.05911264       1.83464212       1.91219265        3      -0.06442708      -0.38296398      -0.45373893       0.50751209      -0.43767592      -0.09822683
