4
Lattice="3.128588 0.0 0.0 -1.5642939988088433 2.709436998432005 0.0 0.0 0.0 5.016955" Properties=species:S:1:pos:R:3:spacegroup_kinds:I:1:forces:R:3 spacegroup="P 1" unit_cell=conventional occupancy="_JSON {\"0\": {\"Al\": 1}, \"1\": {\"Al\": 1}, \"2\": {\"N\": 1}, \"3\": {\"N\": 1}}" energy=-29.673717498779297 free_energy=-29.673717498779297 stress="-0.0022254001814872026 -1.508869218014297e-06 -1.2366441204392231e-08 -1.508869218014297e-06 -0.0022275096271187067 -6.842412858532043e-08 -1.2366441204392231e-08 -6.842412858532043e-08 -0.0054537151008844376" pbc="T T T"
Al       1.56429556       0.90314476       2.50490041        0      -0.00003587       0.00002065       0.00553069
Al      -0.00000156       1.80629224       5.01337791        1       0.00003539      -0.00001926       0.00552548
N        1.56429556       0.90314476       4.41849749        2      -0.00003741       0.00001976      -0.00553106
N       -0.00000156       1.80629224       1.91001999        3       0.00003788      -0.00002099      -0.00552515
