4
Lattice="3.128588 0.0 0.0 -1.5642939988088433 2.709436998432005 0.0 0.0 0.0 5.016955" Properties=species:S:1:pos:R:3:spacegroup_kinds:I:1:momenta:R:3:forces:R:3 spacegroup="P 1" unit_cell=conventional occupancy="_JSON {\"0\": {\"Al\": 1}, \"1\": {\"Al\": 1}, \"2\": {\"N\": 1}, \"3\": {\"N\": 1}}" energy=-29.62374496459961 free_energy=-29.62374496459961 stress="0.004300449043512344 -0.008672607131302357 0.002881909254938364 -0.008672607131302357 -0.006943548563867807 -0.004434610716998577 0.002881909254938364 -0.004434610716998577 -0.014839195646345615" pbc="T T T"
Al       1.54321202       0.89379622       2.53645982        0      -0.00705473      -0.41529149       0.79444919      -0.25249934       0.39302894      -0.87834406
Al       0.03580900       1.79893952       4.98957807        1       0.09337973      -0.29525089      -0.61191873      -0.16601139       0.14058226       0.62745064
N        1.59619758       0.90645097       4.40111845        2      -0.02189857       1.09350640       0.27120763      -0.08899774      -0.09593809       0.34911132
N       -0.05911259       1.83464209       1.91219260        3      -0.06442642      -0.38296400      -0.45373815       0.50750846      -0.43767294      -0.09821765
