4
Lattice="3.128588 0.0 0.0 -1.5642939988088433 2.709436998432005 0.0 0.0 0.0 5.016955" Properties=species:S:1:pos:R:3:spacegroup_kinds:I:1:momenta:R:3:forces:R:3 spacegroup="P 1" unit_cell=conventional occupancy="_JSON {\"0\": {\"Al\": 1}, \"1\": {\"Al\": 1}, \"2\": {\"N\": 1}, \"3\": {\"N\": 1}}" energy=-29.673717498779297 free_energy=-29.673717498779297 stress="-0.0022252278868108988 -1.4328044244393823e-06 -1.2756682821191134e-08 -1.4328044244393823e-06 -0.002227401128038764 -2.912391927623048e-08 -1.2756682821191134e-08 -2.912391927623048e-08 -0.005453632213175297" pbc="T T T"
Al       1.56429556       0.90314476       2.50490041        0       0.68448204       0.53670047       0.91071479      -0.00003620       0.00002021       0.00553215
Al      -0.00000156       1.80629224       5.01337791        1       0.31075784       0.39520501      -1.87833745       0.00003467      -0.00002012       0.00552461
N        1.56429556       0.90314476       4.41849749        2      -0.23293981      -0.79739853      -0.40745139      -0.00003629       0.00002019      -0.00553032
N       -0.00000156       1.80629224       1.91001999        3      -0.76230006      -0.13450696       1.37507406       0.00003773      -0.00002026      -0.00552595
4
Lattice="3.128588 0.0 0.0 -1.5642939988088433 2.709436998432005 0.0 0.0 0.0 5.016955" Properties=species:S:1:pos:R:3:spacegroup_kinds:I:1:momenta:R:3:forces:R:3 spacegroup="P 1" unit_cell=conventional occupancy="_JSON {\"0\": {\"Al\": 1}, \"1\": {\"Al\": 1}, \"2\": {\"N\": 1}, \"3\": {\"N\": 1}}" energy=-29.43359375 free_energy=-29.43359375 stress="-0.013773484155535698 -0.016446417197585106 0.012948760762810707 -0.016446417197585106 -0.023968733847141266 0.009969756007194519 0.012948760762810707 0.009969756007194519 -0.01205948181450367" pbc="T T T"
Al       1.60246140       0.92231284       2.54150848        0       0.57498194      -0.13491980       1.02882470      -1.31301332      -0.49033490      -0.87831271
Al       0.00328789       1.81111140       4.94718775        1      -0.44725798       0.00118057      -1.07867299      -0.30154106      -0.59423256       1.18011773
N        1.53678587       0.85870779       4.38099594        2       0.14052025      -0.46066734       0.20203862       0.28490737       0.67984492       1.25553644
N       -0.05228244       1.80432671       2.00436659        3      -0.26824425       0.59440660      -0.15219037       1.32964706       0.40472242      -1.55734134
4
Lattice="3.128588 0.0 0.0 -1.5642939988088433 2.709436998432005 0.0 0.0 0.0 5.016955" Properties=species:S:1:pos:R:3:spacegroup_kinds:I:1:momenta:R:3:forces:R:3 spacegroup="P 1" unit_cell=conventional occupancy="_JSON {\"0\": {\"Al\": 1}, \"1\": {\"Al\": 1}, \"2\": {\"N\": 1}, \"3\": {\"N\": 1}}" energy=-29.567256927490234 free_energy=-29.567256927490234 stress="0.01291592139750719 0.0017025688430294394 0.003579331561923027 0.0017025688430294394 -0.02585689164698124 -0.00536911329254508 0.003579331561923027 -0.00536911329254508 -0.011435108259320259" pbc="T T T"
Al       1.59598185       0.90138486       2.55101265        0      -0.85003974      -0.64755173      -0.41676283      -0.33522475       0.74370480      -1.26921046
Al      -0.01311799       1.79082858       4.96769659        1      -0.24557027      -0.74327795       1.65595789      -0.18280271      -0.17026865       1.21499515
N        1.52960407       0.86779351       4.41996340        2       0.16413064       0.60763573       0.63654560       0.31887662       0.39321542      -0.09056926
N       -0.00060093       1.87475189       1.90756518        3       0.93147932       0.78319393      -1.87574070       0.19915089      -0.96665168       0.14478420
4
Lattice="3.128588 0.0 0.0 -1.5642939988088433 2.709436998432005 0.0 0.0 0.0 5.016955" Properties=species:S:1:pos:R:3:spacegroup_kinds:I:1:momenta:R:3:forces:R:3 spacegroup="P 1" unit_cell=conventional occupancy="_JSON {\"0\": {\"Al\": 1}, \"1\": {\"Al\": 1}, \"2\": {\"N\": 1}, \"3\": {\"N\": 1}}" energy=-29.406272888183594 free_energy=-29.406272888183594 stress="0.010688815265893936 0.016498122364282608 -0.008163992315530777 0.016498122364282608 -0.009423190727829933 -0.015553964301943779 -0.008163992315530777 -0.015553964301943779 -0.061253949999809265" pbc="T T T"
Al       1.53423928       0.87298461       2.51007452        0      -1.60925370       0.09619219      -1.03262324       0.74608809       1.00298715       0.03482515
Al      -0.01349004       1.78470221       5.05709165        1       0.21561193      -0.04339793       1.72443251       0.02271344       0.40732884      -1.66437006
N        1.55208974       0.92225132       4.42203507        2       0.38659430       0.63935807      -0.93002925       0.04495721      -0.39009675      -0.56986129
N        0.09667397       1.88681819       1.81230437        3       1.00704743      -0.69215233       0.23821988      -0.81375873      -1.02021933       2.19940591
4
Lattice="3.128588 0.0 0.0 -1.5642939988088433 2.709436998432005 0.0 0.0 0.0 5.016955" Properties=species:S:1:pos:R:3:spacegroup_kinds:I:1:momenta:R:3:forces:R:3 spacegroup="P 1" unit_cell=conventional occupancy="_JSON {\"0\": {\"Al\": 1}, \"1\": {\"Al\": 1}, \"2\": {\"N\": 1}, \"3\": {\"N\": 1}}" energy=-29.201902389526367 free_energy=-29.201902389526367 stress="-0.026441100984811783 0.03815564513206482 -0.03138243779540062 0.03815564513206482 -0.004877712577581406 0.0015437118709087372 -0.03138243779540062 0.0015437118709087372 -0.05181990936398506" pbc="T T T"
Al       1.49382403       0.87740194       2.48150489        0      -0.08661637      -0.02748777       0.25595550       2.48428178      -0.46186715       1.22611666
Al      -0.02076739       1.79337850       5.08843294        1       0.00716710       0.60209056      -1.27068313       0.64723134       0.57433516      -2.36004066
N        1.60157224       0.96971684       4.33361322        2       0.49437285       0.53651021      -0.17473357      -0.53882432      -0.70145386       1.74608886
N        0.13924906       1.81421453       1.89535166        3      -0.41492362      -1.11111303       1.18946115      -2.59268904       0.58898586      -0.61216545
4
Lattice="3.128588 0.0 0.0 -1.5642939988088433 2.709436998432005 0.0 0.0 0.0 5.016955" Properties=species:S:1:pos:R:3:spacegroup_kinds:I:1:momenta:R:3:forces:R:3 spacegroup="P 1" unit_cell=conventional occupancy="_JSON {\"0\": {\"Al\": 1}, \"1\": {\"Al\": 1}, \"2\": {\"N\": 1}, \"3\": {\"N\": 1}}" energy=-29.574626922607422 free_energy=-29.574626922607422 stress="-0.023617958649992943 -0.01432139240205288 -0.011127915233373642 -0.01432139240205288 0.015030039474368095 -0.0028546229004859924 -0.011127915233373642 -0.0028546229004859924 -0.014440442435443401" pbc="T T T"
Al       1.53421962       0.88369273       2.53780581        0       1.55944050       0.36820889       1.55970994       0.29264173      -0.24000345      -0.91367865
Al      -0.00048009       1.82107762       4.98837340        1       1.01688584       0.86374291      -2.47525453       0.94369668       0.52251595       0.78486699
N        1.63583967       0.96584648       4.40663187        2      -0.31021923      -0.52489310       1.27117387      -1.15103912      -0.78907239       0.05687885
N       -0.01177521       1.75252280       1.90648732        3      -2.26610711      -0.70705873      -0.35562932      -0.08529939       0.50655967       0.07193282
4
Lattice="3.128588 0.0 0.0 -1.5642939988088433 2.709436998432005 0.0 0.0 0.0 5.016955" Properties=species:S:1:pos:R:3:spacegroup_kinds:I:1:momenta:R:3:forces:R:3 spacegroup="P 1" unit_cell=conventional occupancy="_JSON {\"0\": {\"Al\": 1}, \"1\": {\"Al\": 1}, \"2\": {\"N\": 1}, \"3\": {\"N\": 1}}" energy=-29.372072219848633 free_energy=-29.372072219848633 stress="-0.0056297071278095245 -0.018719332292675972 0.015849536284804344 -0.018719332292675972 -0.03227270394563675 0.01721210777759552 0.015849536284804344 0.01721210777759552 -0.007298048585653305" pbc="T T T"
Al       1.57072834       0.88046444       2.56331975        0      -0.00039251      -0.37629563      -0.57844045      -1.34386456      -0.44065887      -1.50707841
Al       0.05055070       1.86456077       4.94968567        1       0.52727030       0.77034141       1.04960201      -0.49129146      -1.36432922       1.82584774
N        1.58204799       0.88176659       4.44992392        2      -0.27832267      -1.02263376      -0.55459312       0.15003876       1.16375279      -0.85894758
N       -0.12661084       1.75915458       1.88869868        3      -0.24855517       0.62858796       0.08343149       1.68511724       0.64123547       0.54017842
4
Lattice="3.128588 0.0 0.0 -1.5642939988088433 2.709436998432005 0.0 0.0 0.0 5.016955" Properties=species:S:1:pos:R:3:spacegroup_kinds:I:1:momenta:R:3:forces:R:3 spacegroup="P 1" unit_cell=conventional occupancy="_JSON {\"0\": {\"Al\": 1}, \"1\": {\"Al\": 1}, \"2\": {\"N\": 1}, \"3\": {\"N\": 1}}" energy=-29.596923828125 free_energy=-29.596923828125 stress="0.01597658358514309 -0.0045060706324875355 0.006018669344484806 -0.0045060706324875355 -0.02549923211336136 -0.004597113002091646 0.006018669344484806 -0.004597113002091646 -0.010013872757554054" pbc="T T T"
Al       1.53284808       0.86390066       2.51395077        0      -1.59464504      -0.16469685      -1.74991325      -0.27820715       0.89915800      -0.15420593
Al       0.06317841       1.83227864       5.00948378        1       0.38440021      -1.80666589       1.59449958      -0.58708364      -0.41271561       0.16725004
N        1.58572476       0.89623783       4.41422576        2       0.14193165       1.12964939      -0.09119162       0.25704056       0.38076615       0.00228259
N       -0.08152106       1.83862425       1.90381444        3       1.06831314       0.84171331       0.24660520       0.60825050      -0.86720842      -0.01532683
4
Lattice="3.128588 0.0 0.0 -1.5642939988088433 2.709436998432005 0.0 0.0 0.0 5.016955" Properties=species:S:1:pos:R:3:spacegroup_kinds:I:1:momenta:R:3:forces:R:3 spacegroup="P 1" unit_cell=conventional occupancy="_JSON {\"0\": {\"Al\": 1}, \"1\": {\"Al\": 1}, \"2\": {\"N\": 1}, \"3\": {\"N\": 1}}" energy=-29.462554931640625 free_energy=-29.462554931640625 stress="-0.005697000306099653 0.010849404148757458 -0.00390666676685214 0.010849404148757458 -0.019133588299155235 -0.012703177519142628 -0.00390666676685214 -0.012703177519142628 -0.011871285736560822" pbc="T T T"
Al       1.48347330       0.88264396       2.44527931        0      -0.30454534       1.01149544      -0.60004507       0.88393152       0.95768422       1.70777047
Al       0.06164409       1.77681259       5.07306070        1      -0.86715275      -0.75617390       0.43048916      -0.30080640       0.71655458      -1.72280025
N        1.61717709       0.94947182       4.40498425        2       0.38645876       0.04830127       0.18623258      -0.07233945      -0.67486149       0.48910668
N       -0.01486932       1.85626148       1.92266697        3       0.78523927      -0.30362286      -0.01667675      -0.51078582      -0.99937725      -0.47407693
4
Lattice="3.128588 0.0 0.0 -1.5642939988088433 2.709436998432005 0.0 0.0 0.0 5.016955" Properties=species:S:1:pos:R:3:spacegroup_kinds:I:1:momenta:R:3:forces:R:3 spacegroup="P 1" unit_cell=conventional occupancy="_JSON {\"0\": {\"Al\": 1}, \"1\": {\"Al\": 1}, \"2\": {\"N\": 1}, \"3\": {\"N\": 1}}" energy=-29.51875114440918 free_energy=-29.51875114440918 stress="-0.023370858281850815 0.006540027447044849 -0.016098227351903915 0.006540027447044849 0.006697263102978468 -0.0004824150528293103 -0.016098227351903915 -0.0004824150528293103 -0.02216130681335926" pbc="T T T"
Al       1.50607637       0.94974319       2.46463696        0       1.15921280       0.62635175       1.50689816       1.24247444      -0.60704547       1.15697360
Al       0.01335469       1.75088040       5.06242873        1      -0.91112039       0.14825251      -0.88962581       0.51474655       0.69610673      -1.43088889
N        1.62637959       0.90489620       4.42127855        2      -0.14223497      -0.64065013       0.21498378      -0.71771836      -0.51824272      -0.07984958
N        0.02538012       1.82158362       1.88963024        3      -0.10585743      -0.13395414      -0.83225624      -1.03950262       0.42918143       0.35376456
4
Lattice="3.128588 0.0 0.0 -1.5642939988088433 2.709436998432005 0.0 0.0 0.0 5.016955" Properties=species:S:1:pos:R:3:spacegroup_kinds:I:1:momenta:R:3:forces:R:3 spacegroup="P 1" unit_cell=conventional occupancy="_JSON {\"0\": {\"Al\": 1}, \"1\": {\"Al\": 1}, \"2\": {\"N\": 1}, \"3\": {\"N\": 1}}" energy=-29.605010986328125 free_energy=-29.605010986328125 stress="0.0015963504556566477 -0.0067859189584851265 -0.003095370251685381 -0.0067859189584851265 0.0017810279969125986 0.0017244942719116807 -0.003095370251685381 0.0017244942719116807 -0.023114850744605064" pbc="T T T"
Al       1.56693924       0.93861028       2.54470905        0       1.44875342      -0.98943846       1.48437340      -0.01659487      -0.29131460      -1.20299590
Al      -0.01304571       1.78057347       4.99752454        1       0.01689823       1.11024993      -1.70729952       0.38438815       0.02358333       0.50759351
N        1.58384204       0.87104971       4.42155571        2      -0.67927487      -0.02704957      -0.19037175      -0.39236957       0.15177871      -0.39792600
N        0.00122213       1.81989278       1.85992054        3      -0.78637671      -0.09376186       0.41329776       0.02457639       0.11595273       1.09332824
4
Lattice="3.128588 0.0 0.0 -1.5642939988088433 2.709436998432005 0.0 0.0 0.0 5.016955" Properties=species:S:1:pos:R:3:spacegroup_kinds:I:1:momenta:R:3:forces:R:3 spacegroup="P 1" unit_cell=conventional occupancy="_JSON {\"0\": {\"Al\": 1}, \"1\": {\"Al\": 1}, \"2\": {\"N\": 1}, \"3\": {\"N\": 1}}" energy=-29.47020721435547 free_energy=-29.47020721435547 stress="0.003203142434358597 -0.017801564186811447 0.011838301084935665 -0.017801564186811447 -0.04134928807616234 0.007359982468187809 0.011838301084935665 0.007359982468187809 -0.005160362925380468" pbc="T T T"
Al       1.62755628       0.89950076       2.54516749        0       1.04970770      -0.99981872      -0.80202755      -1.41065264       0.15933228      -0.91778761
Al      -0.00757058       1.81703574       4.95606286        1      -0.03757945       0.11959864      -0.16512875      -0.26242486      -0.84351683       1.41445625
N        1.52756232       0.85151203       4.42065483        2      -0.42752225       0.29023037      -0.07965766       0.31765690       0.98894787      -0.00115363
N       -0.06966665       1.84442112       1.93994533        3      -0.58460594       0.58998977       1.04681386       1.35542059      -0.30476314      -0.49551508
4
Lattice="3.128588 0.0 0.0 -1.5642939988088433 2.709436998432005 0.0 0.0 0.0 5.016955" Properties=species:S:1:pos:R:3:spacegroup_kinds:I:1:momenta:R:3:forces:R:3 spacegroup="P 1" unit_cell=conventional occupancy="_JSON {\"0\": {\"Al\": 1}, \"1\": {\"Al\": 1}, \"2\": {\"N\": 1}, \"3\": {\"N\": 1}}" energy=-29.452991485595703 free_energy=-29.452991485595703 stress="-0.013224713504314423 -0.023750044405460358 0.00791148655116558 -0.023750044405460358 -0.04793158546090126 -0.007333248388022184 0.00791148655116558 -0.007333248388022184 0.02863270230591297" pbc="T T T"
Al       1.63184039       0.85684028       2.46693553        0      -0.97589043      -0.55899518      -1.34838316      -1.39009941       1.11026371       1.17303741
Al      -0.02377744       1.82170283       4.98999595        1      -0.28018855       0.45883519       1.28013426      -0.08532488       0.08283205       0.34697565
N        1.52792696       0.92957747       4.44479005        2       0.11446498       0.97873217       0.08012568       0.22036037      -0.17398539       0.05598472
N       -0.04718868       1.83921501       2.00086005        3       1.14161405      -0.87857213      -0.01187684       1.25506413      -1.01911032      -1.57599735
4
Lattice="3.128588 0.0 0.0 -1.5642939988088433 2.709436998432005 0.0 0.0 0.0 5.016955" Properties=species:S:1:pos:R:3:spacegroup_kinds:I:1:momenta:R:3:forces:R:3 spacegroup="P 1" unit_cell=conventional occupancy="_JSON {\"0\": {\"Al\": 1}, \"1\": {\"Al\": 1}, \"2\": {\"N\": 1}, \"3\": {\"N\": 1}}" energy=-29.53631591796875 free_energy=-29.53631591796875 stress="-0.01985791325569153 0.013828937895596027 -0.005717409308999777 0.013828937895596027 -0.003164373803883791 -0.0016708329785615206 -0.005717409308999777 -0.0016708329785615206 -0.006260253489017487" pbc="T T T"
Al       1.56291510       0.86348347       2.43836899        0      -1.44558787       0.38889093       0.34074906       0.67285895       0.11609162       1.45909333
Al      -0.01834143       1.83613136       5.05736563        1       0.19731468      -0.00921590       1.04742143       0.06595282       0.15003373      -1.19267511
N        1.54726696       0.95741147       4.47045639        2      -0.01023964       0.05685065       0.14844002       0.09761308      -0.44420448      -0.65174341
N        0.05576964       1.77068663       1.90062729        3       1.25851286      -0.43652568      -1.53661059      -0.83642477       0.17807928       0.38532576
4
Lattice="3.128588 0.0 0.0 -1.5642939988088433 2.709436998432005 0.0 0.0 0.0 5.016955" Properties=species:S:1:pos:R:3:spacegroup_kinds:I:1:momenta:R:3:forces:R:3 spacegroup="P 1" unit_cell=conventional occupancy="_JSON {\"0\": {\"Al\": 1}, \"1\": {\"Al\": 1}, \"2\": {\"N\": 1}, \"3\": {\"N\": 1}}" energy=-29.531002044677734 free_energy=-29.531002044677734 stress="-0.01829402893781662 0.0157074686139822 -0.011607700027525425 0.0157074686139822 0.003148037241771817 0.0046056825667619705 -0.011607700027525425 0.0046056825667619705 -0.017258932814002037" pbc="T T T"
Al       1.54701077       0.87273545       2.46070913        0       0.71855725      -0.11584347       0.49435221       1.07476747      -0.28505874       1.06925535
Al      -0.01761629       1.84389392       5.05391118        1       0.19346413       0.17720405      -0.69189974       0.23187745      -0.07941949      -1.16825032
N        1.56395352       0.94331124       4.45961397        2       0.32487440      -0.12409427      -0.51346167      -0.11547197      -0.20503232      -0.72920382
N        0.06831348       1.75176765       1.87546339        3      -1.23689577       0.06273370       0.71100927      -1.19117272       0.56951046       0.82819915
4
Lattice="3.128588 0.0 0.0 -1.5642939988088433 2.709436998432005 0.0 0.0 0.0 5.016955" Properties=species:S:1:pos:R:3:spacegroup_kinds:I:1:momenta:R:3:forces:R:3 spacegroup="P 1" unit_cell=conventional occupancy="_JSON {\"0\": {\"Al\": 1}, \"1\": {\"Al\": 1}, \"2\": {\"N\": 1}, \"3\": {\"N\": 1}}" energy=-29.61321449279785 free_energy=-29.61321449279785 stress="-0.00838183332234621 -0.004276638384908438 0.005492866039276123 -0.004276638384908438 -0.013937139883637428 0.0014803766971454024 0.005492866039276123 0.0014803766971454024 0.012475460767745972" pbc="T T T"
Al       1.57767909       0.87033378       2.48321559        0       0.42145839      -0.10086022       0.75449434      -0.50598705       0.14215431       0.64867604
Al       0.00878680       1.84488738       5.00616582        1       0.94842527       0.04829687      -0.67234666      -0.28191113      -0.37569565       0.05942859
N        1.54733737       0.91884313       4.41695260        2      -0.50233578      -0.06173878      -0.86681634       0.26756901       0.16352333       0.34766638
N       -0.02491941       1.77881443       1.96659661        3      -0.86754786       0.11430213       0.78466877       0.52032924       0.07001793      -1.05577111
4
Lattice="3.128588 0.0 0.0 -1.5642939988088433 2.709436998432005 0.0 0.0 0.0 5.016955" Properties=species:S:1:pos:R:3:spacegroup_kinds:I:1:momenta:R:3:forces:R:3 spacegroup="P 1" unit_cell=conventional occupancy="_JSON {\"0\": {\"Al\": 1}, \"1\": {\"Al\": 1}, \"2\": {\"N\": 1}, \"3\": {\"N\": 1}}" energy=-29.557838439941406 free_energy=-29.557838439941406 stress="-0.016363756731152534 -0.0029474806506186724 0.012903623282909393 -0.0029474806506186724 -0.00620749406516552 0.0015375014627352357 0.012903623282909393 0.0015375014627352357 -0.002714591333642602" pbc="T T T"
Al       1.59068814       0.88023430       2.52274583        0      -0.41625579       0.17887043       0.33160828      -0.90884280      -0.14030720      -0.36867937
Al       0.01872291       1.83477377       4.97781995        1       0.14974014      -0.20763030      -0.17578557      -0.72829574      -0.10046420       0.72652638
N        1.52039169       0.92489993       4.39464374        2       0.19754343       0.25939876       0.47781732       0.72475863      -0.09604853       0.71574116
N       -0.04216863       1.77342027       1.96745694        3       0.06897223      -0.23063885      -0.63364000       0.91238022       0.33681986      -1.07358778
4
Lattice="3.128588 0.0 0.0 -1.5642939988088433 2.709436998432005 0.0 0.0 0.0 5.016955" Properties=species:S:1:pos:R:3:spacegroup_kinds:I:1:momenta:R:3:forces:R:3 spacegroup="P 1" unit_cell=conventional occupancy="_JSON {\"0\": {\"Al\": 1}, \"1\": {\"Al\": 1}, \"2\": {\"N\": 1}, \"3\": {\"N\": 1}}" energy=-29.621112823486328 free_energy=-29.621112823486328 stress="-0.021500704810023308 0.005276469048112631 -0.003267457941547036 0.005276469048112631 0.010657633654773235 0.0019249047618359327 -0.003267457941547036 0.0019249047618359327 -0.001589859719388187" pbc="T T T"
Al       1.54767651       0.89587762       2.50832857        0      -0.85809969       0.46896499      -1.00003021       0.39160407      -0.39029068      -0.15032844
Al       0.00665803       1.82067515       5.00342497        1      -0.72966947      -0.11082648       1.46536721      -0.00949801       0.22696917       0.34863311
N        1.57185927       0.94293296       4.45440717        2       0.62349878      -0.37686512       0.64593186      -0.01969874      -0.43335226      -0.83890182
N        0.01256031       1.75229422       1.88600534        3       0.96427037       0.01872663      -1.11126882      -0.36240730       0.59667373       0.64059734
4
Lattice="3.128588 0.0 0.0 -1.5642939988088433 2.709436998432005 0.0 0.0 0.0 5.016955" Properties=species:S:1:pos:R:3:spacegroup_kinds:I:1:momenta:R:3:forces:R:3 spacegroup="P 1" unit_cell=conventional occupancy="_JSON {\"0\": {\"Al\": 1}, \"1\": {\"Al\": 1}, \"2\": {\"N\": 1}, \"3\": {\"N\": 1}}" energy=-29.520854949951172 free_energy=-29.520854949951172 stress="-0.014047276228666306 0.011820890940725803 -0.014255491085350513 0.011820890940725803 -0.005614857655018568 0.00936154369264841 -0.014255491085350513 0.00936154369264841 -0.0195709727704525" pbc="T T T"
Al       1.52999429       0.91403916       2.46474571        0       0.09545044      -0.23101238      -1.18071336       1.21875048      -0.63577080       0.99289769
Al      -0.00890653       1.82180732       5.05208966        1       0.31216896      -0.10747484       0.45537647       0.39472455      -0.38378549      -1.12710190
N        1.59437710       0.88605554       4.45928983        2      -0.04798977      -0.53350286      -0.20523212      -0.40810230       0.35579166      -0.79021502
N        0.05384447       1.77207219       1.87145000        3      -0.35962961       0.87199014       0.93056900      -1.20537257       0.66376483       0.92441911
4
Lattice="3.128588 0.0 0.0 -1.5642939988088433 2.709436998432005 0.0 0.0 0.0 5.016955" Properties=species:S:1:pos:R:3:spacegroup_kinds:I:1:momenta:R:3:forces:R:3 spacegroup="P 1" unit_cell=conventional occupancy="_JSON {\"0\": {\"Al\": 1}, \"1\": {\"Al\": 1}, \"2\": {\"N\": 1}, \"3\": {\"N\": 1}}" energy=-29.61878776550293 free_energy=-29.61878776550293 stress="0.01011771522462368 -0.0018219423945993185 -0.0018730444135144353 -0.0018219423945993185 -0.024783208966255188 0.004591095261275768 -0.0018730444135144353 0.004591095261275768 2.6383015210740268e-05" pbc="T T T"
Al       1.53818032       0.90928018       2.47247631        0       0.23228537      -0.27447285       1.41733289       0.21200958       0.18702242       0.85530686
Al       0.01802691       1.81430742       5.03506513        1       0.60360810      -0.42930278      -1.11140762       0.03760239      -0.69444203      -0.55142456
N        1.59518016       0.85128050       4.42414648        2       0.09084627       0.02420713      -0.77345464      -0.19470380       0.84070683       0.01227969
N       -0.01452983       1.83034436       1.92467355        3      -0.92673973       0.67956852       0.46752935      -0.05490833      -0.33328706      -0.31616193
4
Lattice="3.128588 0.0 0.0 -1.5642939988088433 2.709436998432005 0.0 0.0 0.0 5.016955" Properties=species:S:1:pos:R:3:spacegroup_kinds:I:1:momenta:R:3:forces:R:3 spacegroup="P 1" unit_cell=conventional occupancy="_JSON {\"0\": {\"Al\": 1}, \"1\": {\"Al\": 1}, \"2\": {\"N\": 1}, \"3\": {\"N\": 1}}" energy=-29.62374496459961 free_energy=-29.62374496459961 stress="0.004300449043512344 -0.008672607131302357 0.002881909254938364 -0.008672607131302357 -0.006943548563867807 -0.004434610716998577 0.002881909254938364 -0.004434610716998577 -0.014839195646345615" pbc="T T T"
Al       1.54321202       0.89379622       2.53645982        0      -0.00705473      -0.41529149       0.79444919      -0.25249934       0.39302894      -0.87834406
Al       0.03580900       1.79893952       4.98957807        1       0.09337973      -0.29525089      -0.61191873      -0.16601139       0.14058226       0.62745064
N        1.59619758       0.90645097       4.40111845        2      -0.02189857       1.09350640       0.27120763      -0.08899774      -0.09593809       0.34911132
N       -0.05911259       1.83464209       1.91219260        3      -0.06442642      -0.38296400      -0.45373815       0.50750846      -0.43767294      -0.09821765
