4
Lattice="3.128588 0.0 0.0 -1.5642939988088433 2.709436998432005 0.0 0.0 0.0 5.016955" Properties=species:S:1:pos:R:3:spacegroup_kinds:I:1:forces:R:3 spacegroup="P 1" unit_cell=conventional occupancy="_JSON {\"0\": {\"Al\": 1}, \"1\": {\"Al\": 1}, \"2\": {\"N\": 1}, \"3\": {\"N\": 1}}" energy=-29.673717498779297 free_energy=-29.673717498779297 stress="-0.0022252278868108988 -1.4328044244393823e-06 -1.2756682821191134e-08 -1.4328044244393823e-06 -0.002227401128038764 -2.912391927623048e-08 -1.2756682821191134e-08 -2.912391927623048e-08 -0.005453632213175297" pbc="T T T"
Al       1.56429556       0.90314476       2.50490041        0      -0.00003620       0.00002021       0.00553215
Al      -0.00000156       1.80629224       5.01337791        1       0.00003467      -0.00002012       0.00552461
N        1.56429556       0.90314476       4.41849749        2      -0.00003629       0.00002019      -0.00553032
N       -0.00000156       1.80629224       1.91001999        3       0.00003773      -0.00002026      -0.00552595
