4
Lattice="3.128588 0.0 0.0 -1.5642939988088433 2.709436998432005 0.0 0.0 0.0 5.016955" Properties=species:S:1:pos:R:3:spacegroup_kinds:I:1:forces:R:3 spacegroup="P 1" unit_cell=conventional occupancy="_JSON {\"0\": {\"Al\": 1}, \"1\": {\"Al\": 1}, \"2\": {\"N\": 1}, \"3\": {\"N\": 1}}" energy=-29.673717498779297 free_energy=-29.673717498779297 stress="-0.0022255252115428448 -1.4894367268425412e-06 -4.122509622561665e-08 -1.4894367268425412e-06 -0.0022275084629654884 -3.953952543156447e-08 -4.122509622561665e-08 -3.953952543156447e-08 -0.005453574471175671" pbc="T T T"
Al       1.56429556       0.90314476       2.50490041        0      -0.00003561       0.00001922       0.00553335
Al      -0.00000156       1.80629224       5.01337791        1       0.00003591      -0.00001906       0.00552298
N        1.56429556       0.90314476       4.41849749        2      -0.00003761       0.00001970      -0.00553011
N       -0.00000156       1.80629224       1.91001999        3       0.00003729      -0.00001984      -0.00552648
