56
Lattice="10.7619164 0.0 0.0 -9.665296305262016 4.732958053065482 0.0 -0.5483100463354086 -2.3664790220718444 10.484177494289693" Properties=species:S:1:pos:R:3:spacegroup_kinds:I:1:momenta:R:3:forces:R:3 spacegroup="P 1" unit_cell=conventional occupancy="_JSON {\"0\": {\"H\": 1}, \"1\": {\"H\": 1}, \"2\": {\"H\": 1}, \"3\": {\"H\": 1}, \"4\": {\"H\": 1}, \"5\": {\"H\": 1}, \"6\": {\"H\": 1}, \"7\": {\"H\": 1}, \"8\": {\"H\": 1}, \"9\": {\"H\": 1}, \"10\": {\"H\": 1}, \"11\": {\"H\": 1}, \"12\": {\"H\": 1}, \"13\": {\"H\": 1}, \"14\": {\"H\": 1}, \"15\": {\"H\": 1}, \"16\": {\"H\": 1}, \"17\": {\"H\": 1}, \"18\": {\"H\": 1}, \"19\": {\"H\": 1}, \"20\": {\"H\": 1}, \"21\": {\"H\": 1}, \"22\": {\"H\": 1}, \"23\": {\"H\": 1}, \"24\": {\"H\": 1}, \"25\": {\"H\": 1}, \"26\": {\"H\": 1}, \"27\": {\"H\": 1}, \"28\": {\"H\": 1}, \"29\": {\"H\": 1}, \"30\": {\"H\": 1}, \"31\": {\"H\": 1}, \"32\": {\"C\": 1}, \"33\": {\"C\": 1}, \"34\": {\"C\": 1}, \"35\": {\"C\": 1}, \"36\": {\"C\": 1}, \"37\": {\"C\": 1}, \"38\": {\"C\": 1}, \"39\": {\"C\": 1}, \"40\": {\"C\": 1}, \"41\": {\"C\": 1}, \"42\": {\"C\": 1}, \"43\": {\"C\": 1}, \"44\": {\"C\": 1}, \"45\": {\"C\": 1}, \"46\": {\"C\": 1}, \"47\": {\"C\": 1}, \"48\": {\"O\": 1}, \"49\": {\"O\": 1}, \"50\": {\"O\": 1}, \"51\": {\"O\": 1}, \"52\": {\"O\": 1}, \"53\": {\"O\": 1}, \"54\": {\"O\": 1}, \"55\": {\"O\": 1}}" energy=-313.62188720703125 free_energy=-313.62188720703125 stress="-0.006905393209308386 -0.0013851983239874244 -0.004504714626818895 -0.0013851983239874244 0.009439322166144848 0.0056000929325819016 -0.004504714626818895 0.0056000929325819016 0.013407164253294468" pbc="T T T"
H        0.49738841       1.84331566       1.77824716        0      -0.10613467      -0.09781590       0.11564446      -0.18202376       0.31332412       0.59539777
H        0.10556128      -0.11663714       8.27653547        1       0.04015891      -0.13169745       0.14437732      -0.36897695      -0.78898603       0.22590953
H        6.62289164      -0.91207448       5.20265694        2      -0.16864500       0.10450267      -0.19164179       0.98594445      -0.03108663       0.77322572
H        3.36922890       0.56254900       5.08036114        3       0.12068305      -0.12390996       0.11664012      -0.39409360      -0.59535778      -0.23537463
H        5.95301282       0.59228831       3.38812097        4       0.14111312      -0.33747150      -0.07872093      -0.93092465      -0.50391960       0.87668109
H        5.01743978       0.42520664       7.32441988        5      -0.23162819       0.06489483      -0.14197776      -0.38864508      -1.26104665      -0.47847429
H       -1.57731800       0.54128651      10.53958347        6      -0.12407326      -0.08816642      -0.07763877      -0.37742460      -0.46801579       0.30721813
H        2.69863428       2.00433331       0.26116717        7      -0.05404026       0.01557252      -0.10225809      -0.72494584      -0.67532110      -0.86529589
H       -1.22303985       1.63673976       1.75940549        8      -0.05424939       0.24253151      -0.13897881      -0.49741995      -0.09367098       0.10530117
H       -8.93359094       2.96970981       8.47514766        9      -0.06041904      -0.12559621      -0.10761899       0.36621481      -0.63052416       0.55258358
H       -2.26849172       4.25936853       6.83350253       10       0.20578852       0.12214430       0.33238038      -0.06949993      -0.47619504      -0.34378284
H       -6.68836040       4.95609474       3.39407518       11      -0.06212367       0.10325995      -0.15892892       0.13253692      -0.56484574       0.15243183
H       -3.12925553       0.32645822       3.01954322       12       0.09286810       0.17897742      -0.00989636       0.31408489       0.11226220       0.01380491
H       -6.80751057       1.79512333       7.74588592       13       0.11313700      -0.05419670      -0.04504067      -2.35593939       0.59494698      -0.52510130
H       -1.67751193       0.97559893       8.80862408       14       0.00516287      -0.30016507      -0.16851939      -0.66054416       0.17537294       0.81925863
H       -7.85157874       2.25969209       2.02092914       15       0.06193686       0.16966523       0.04109191       0.45021674       0.30492815      -0.97372204
H       -1.03679267       0.54726053       4.10971767       16       0.09384601       0.18126133      -0.07858789       0.29054415       0.47456181       0.73892993
H        1.41496407       2.60741886       5.94194805       17       0.17914786       0.16207801      -0.08142893       0.04019834      -0.18983521       0.67822516
H       -0.64058348       2.00872444       6.06364857       18      -0.05634304       0.12337205       0.04032544      -0.53551412       0.51595479      -0.09275731
H        0.85977695      -0.92446412       4.06230140       19       0.08226748       0.01615503       0.13954110      -0.43777367      -0.05474697       0.42652386
H        7.07832372       1.52716407       0.77918354       20       0.03746044       0.06298994      -0.11847542      -0.51152647      -0.36470687      -0.19008990
H       -5.65481852       2.28567741       9.73115030       21       0.07723523       0.36926318      -0.07796299       0.09997313      -0.39057976       0.05155592
H        6.08095718      -2.02800059       9.57309350       22       0.04996166       0.13992045      -0.04251353       0.10451999      -0.44056642      -0.00563064
H       -5.39307810       3.26285566       1.28813563       23      -0.08191839      -0.05415506       0.26987119      -0.86360335      -0.75486690      -0.77635729
H       -0.07299354       0.27971707       1.81917010       24       0.13898004       0.34269394       0.14181121      -0.42564207      -0.34437388       0.62044978
H       -1.06700043      -1.51564032       8.21163908       25      -0.20145742       0.01373109       0.07616468      -0.17209032      -0.24384515       0.51164621
H       -2.96209916       2.60530137       6.43440192       26       0.06315605      -0.07175231      -0.16381482       0.16210228       0.09859624       0.31126043
H       -6.35720023       3.51669256       4.57538951       27       0.16449646       0.18567992       0.02440236      -0.60310340       1.40274274      -0.34498465
H       -3.82677229       2.00991147       3.18430521       28       0.08980639      -0.11710510      -0.00472075       0.23108782       0.02059508      -0.20068812
H       -5.17636402       2.03285321       7.19923476       29       0.10905302      -0.18779685       0.15105861      -0.36809224      -0.23565997       0.74254543
H       -0.79357697       4.53174510      -0.43569556       30      -0.12627984      -0.10201497      -0.01900685      -0.09977148       0.06218674       0.11299515
H        2.31575696       1.30675600      11.36317799       31       0.12164131       0.07458499      -0.08519268       0.08103898      -0.48912287      -0.09376824
C       -0.37163609       1.38708484       3.80590659       32       0.82677557       0.29513694       0.09766117       0.43049279      -0.84296608      -2.02712297
C        0.11847922      -1.18778293       6.49983783       33      -0.62840421      -0.18736516      -0.14628112      -0.37041968       0.27215257      -0.96541739
C       -0.97555885       2.96185307       5.57576512       34      -0.36449354      -1.07571704       0.20948507       0.37155652       0.17796993       0.59155655
C        1.35011577      -0.15700498       4.68315339       35      -0.02227888       0.95830888       0.13073024       0.73833996       1.50494790       0.40339249
C        6.36784117       0.86650863       1.33870131       36       0.30590316       0.88519063       1.28777004       1.97926950      -0.30295599       0.89316702
C       -5.53677838       1.29363402       9.24627678       37       0.27688666      -0.37684098       0.66636567      -0.66257703      -0.77057481       0.58604741
C       -3.39932686       1.69730079      10.02118764       38      -0.84111715      -0.44256795       0.59809832       0.37920433       0.55000103       0.65976220
C        4.71880456       2.50518181       0.70336294       39       0.38984835       0.88224138      -0.51305351      -0.59659225       1.44279408       0.49371096
C       -0.32683930       1.26219660       2.24609220       40      -0.63948292       0.50545951       0.23424598       0.77352655       0.79702920      -0.39456189
C       -0.05210452      -1.19852069       8.01058157       41       0.11582161      -0.65736602      -0.92747996       0.85168815       1.37444592      -1.02300692
C       -2.37909929       3.46525744       6.06278727       42      -0.05353162       0.08467175      -0.15002839      -0.40585715      -0.60533965      -1.67187452
C        2.83806349      -0.17358542       4.41939547       43       0.55230223       0.76816146      -0.43149918       1.06822598      -0.67908740       0.54370409
C        6.77902020       0.98017849       2.84378917       44      -1.12307222      -0.45029103       0.26639899      -0.51440930       0.02890385      -1.28143239
C       -5.86817685       1.36776544       7.79427954       45      -0.98979661      -0.05587675      -0.83441417       2.87888002       1.13959670      -0.55468225
C       -1.97699404       1.28319948       9.85895618       46       0.40696797      -0.18668305       0.33791271       1.72742307       0.51334566      -1.56751442
C        3.19008774       2.61285387       0.97606087       47       0.25747464       0.90120881      -0.18333429       1.07155120       1.22872138       1.82995272
O       -0.85758716       2.66103183       4.11713046       48       0.61684405      -0.37118587       1.25664005      -0.17585140       0.40347403       1.06925321
O        1.08909381      -0.23997547       6.12862854       49      -0.39618599      -0.37804553      -0.11483433       0.12260364      -0.37597421      -0.82797539
O       -1.16050476      -0.72093720       5.97406345       50      -0.34983694      -1.05740108      -0.27246531      -0.47367001      -0.41498470      -0.96765524
O        1.00795484       1.19208940       4.24044430       51      -0.03057003       0.15482505      -1.24559289      -1.03328133      -0.52625740       0.63128984
O       -3.10184421       4.20162636       0.97719060       52      -0.29226536       0.28802434      -0.94690562      -0.31202254       1.32850552      -0.04798013
O        4.30825704       0.33413973       9.75623645       53       0.02704139      -1.15722865      -0.33727035      -0.25941059       0.04011913       0.50477636
O       -4.24389645       0.74756658       9.49746224       54       0.41595533      -0.82784332       0.02625916       0.13963675       0.06729864      -0.42571503
O        5.02961355       1.21054942       1.07684122       55       0.87862630       0.61974888       1.29120765      -0.01921406      -0.82936358       0.05840792
