56
Lattice="10.7619164 0.0 0.0 -9.665296305262016 4.732958053065482 0.0 -0.5483100463354086 -2.3664790220718444 10.484177494289693" Properties=species:S:1:pos:R:3:spacegroup_kinds:I:1:momenta:R:3:forces:R:3 spacegroup="P 1" unit_cell=conventional occupancy="_JSON {\"0\": {\"H\": 1}, \"1\": {\"H\": 1}, \"2\": {\"H\": 1}, \"3\": {\"H\": 1}, \"4\": {\"H\": 1}, \"5\": {\"H\": 1}, \"6\": {\"H\": 1}, \"7\": {\"H\": 1}, \"8\": {\"H\": 1}, \"9\": {\"H\": 1}, \"10\": {\"H\": 1}, \"11\": {\"H\": 1}, \"12\": {\"H\": 1}, \"13\": {\"H\": 1}, \"14\": {\"H\": 1}, \"15\": {\"H\": 1}, \"16\": {\"H\": 1}, \"17\": {\"H\": 1}, \"18\": {\"H\": 1}, \"19\": {\"H\": 1}, \"20\": {\"H\": 1}, \"21\": {\"H\": 1}, \"22\": {\"H\": 1}, \"23\": {\"H\": 1}, \"24\": {\"H\": 1}, \"25\": {\"H\": 1}, \"26\": {\"H\": 1}, \"27\": {\"H\": 1}, \"28\": {\"H\": 1}, \"29\": {\"H\": 1}, \"30\": {\"H\": 1}, \"31\": {\"H\": 1}, \"32\": {\"C\": 1}, \"33\": {\"C\": 1}, \"34\": {\"C\": 1}, \"35\": {\"C\": 1}, \"36\": {\"C\": 1}, \"37\": {\"C\": 1}, \"38\": {\"C\": 1}, \"39\": {\"C\": 1}, \"40\": {\"C\": 1}, \"41\": {\"C\": 1}, \"42\": {\"C\": 1}, \"43\": {\"C\": 1}, \"44\": {\"C\": 1}, \"45\": {\"C\": 1}, \"46\": {\"C\": 1}, \"47\": {\"C\": 1}, \"48\": {\"O\": 1}, \"49\": {\"O\": 1}, \"50\": {\"O\": 1}, \"51\": {\"O\": 1}, \"52\": {\"O\": 1}, \"53\": {\"O\": 1}, \"54\": {\"O\": 1}, \"55\": {\"O\": 1}}" energy=-315.20623779296875 free_energy=-315.20623779296875 stress="0.0015259895008057356 -0.0007349668885581195 -5.968067284811696e-07 -0.0007349668885581195 -0.0014768543187528849 4.171619849557828e-08 -5.968067284811696e-07 4.171619849557828e-08 0.0016979868523776531" pbc="T T T"
H       -0.01248427       2.27696696       1.83153339        0       0.26354636       0.05758816       0.17128558       0.07122743       0.02707774       0.05251645
H        0.46428407      -0.32702137       8.65264411        1       0.35723632       0.30052336      -0.15421514      -0.05205613       0.05564412      -0.05251585
H        7.11696904      -0.62167877       5.76820574        2       0.13651140      -0.03657588      -0.02448058       0.06071794       0.02959760      -0.06332447
H        3.54843712       0.20514534       4.71597175        3       0.04495575       0.01373704       0.24194406      -0.04159874       0.05318701       0.06330384
H        5.94175252       0.08951207       3.41055536        4       0.10004105       0.00919574       0.06893732      -0.07122697      -0.02707691      -0.05251785
H        4.91667413       0.32702137       7.07362213        5       0.03762731       0.23702154      -0.03633186       0.05205722      -0.05563881       0.05251937
H       -1.73601084       0.62167878       9.95806050        6       0.04090260      -0.15000140      -0.41043770      -0.06071852      -0.02958531       0.06332478
H        2.38083113       2.16133369       0.52611700        7       0.07639930       0.13373956      -0.11953039       0.04159793      -0.05318627      -0.06330098
H       -1.38564785       1.18011340       2.11584331        8       0.34764813      -0.24942510       0.01968671       0.00912129       0.09641463       0.00989597
H       -8.45014457       2.81694541       8.36833418        9      -0.04487542       0.24826795       0.27191556       0.03391310       0.09078160      -0.00993997
H       -2.58250803       2.70418269       6.85836100       10       0.00836639       0.05472545      -0.13232917       0.03144365       0.09145410       0.01228210
H       -6.70499477       3.65935988       3.62581649       11      -0.35280026      -0.06406840       0.05024236       0.01202234       0.09588322      -0.01239233
H       -3.44700030       1.18636563       3.12624543       12       0.17759995       0.19181929      -0.04741865      -0.00912206      -0.09641394      -0.00989552
H       -6.59610993       1.91601265       7.35793206       13      -0.06659844      -0.18039638      -0.21144164      -0.03391618      -0.09078136       0.00994121
H       -1.70183007       2.02877537       8.86790524       14      -0.29590695       0.31510437      -0.07166042      -0.03144046      -0.09144840      -0.01229302
H       -7.79294969       3.44007720       1.61627226       15      -0.10166361      -0.21365327       0.15571300      -0.01202457      -0.09588470       0.01238984
H       -0.77544238       0.72057867       4.36236141       16      -0.29135246      -0.04383699      -0.13778795      -0.05580251      -0.06497569       0.06553192
H        1.56164860       2.67260202       6.12181608       17       0.04513471      -0.09416448      -0.19034861       0.02151136      -0.08285732      -0.06550536
H       -0.46393564       1.89516633       6.16016720       18      -0.02388752       0.06229365       0.02104621       0.04679104      -0.08891319       0.03981809
H        0.70181139      -0.86845994       4.32401029       19       0.02574107      -0.11427781      -0.05287528      -0.08095914      -0.05914045      -0.03975105
H        6.70471062       1.64590036       0.87972733       20      -0.14286290      -0.07079985      -0.14118650       0.05580518       0.06498097      -0.06553370
H       -5.84598670       2.06035604       9.60445016       21      -0.29753233       0.02254640      -0.04431235      -0.02151358       0.08285316       0.06550384
H        5.84489385      -1.89516633       9.56609904       22      -0.28312851       0.06560536      -0.15494221      -0.04679279       0.08891500      -0.03981568
H       -5.53445954       3.23493897       0.91807845       23      -0.02208037       0.11416853       0.04301970       0.08095744       0.05914025       0.03974706
H        0.25131050       0.51347389       1.94957474       24       0.15959789      -0.21361364       0.07505588      -0.00851074      -0.01871613      -0.03717730
H       -0.54820374      -1.79480395       8.53460275       25      -0.12868866      -0.15316038      -0.08588331      -0.00032995      -0.02044808       0.03709354
H       -2.80766320       2.46899490       5.11315433       26      -0.07305533       0.00146869      -0.17781296      -0.04083837      -0.01125213       0.00405183
H       -6.60619587       3.34910738       5.37102316       27       0.12888264       0.07074453      -0.23064715       0.03167394      -0.02802492      -0.00411359
H       -5.08395866       1.85300514       3.29251401       28       0.22099581       0.30740365       0.21601993       0.00851561       0.01871232       0.03717760
H       -4.83275446       1.79480396       7.19166349       29      -0.04673026      -0.18471461       0.19482948       0.00034749       0.02045771      -0.03709880
H       -0.92836486       4.63044218       0.12893441       30      -0.09883902       0.19431951       0.04569436       0.04083268       0.01124326      -0.00406436
H        2.32185777       1.38385068      10.35524308       31       0.15211596       0.04921952       0.12080102      -0.03167585       0.02802802       0.00411099
C       -0.12835063       1.44534837       3.84841655       32      -0.28778073       0.91754073       0.18270710      -0.01445542       0.09213153      -0.08206746
C        0.20260826      -1.12485611       6.63576095       33       0.00096406       0.97078231      -0.67128192       0.05361614       0.07627209       0.08205724
C       -0.77226604       2.84130358       5.69336968       34      -0.96473690       0.45234422      -0.54337998      -0.06051165       0.10292879       0.03487879
C        1.39483372      -0.15433229       4.79080781       35       0.83737779      -0.34833687      -0.35976593       0.09947464       0.06571010      -0.03489288
C        6.05761888       0.92113066       1.39367220       36       0.73780001       0.71679960       1.01054651       0.01444769      -0.09213766       0.08206865
C       -5.58356646       1.12485611       9.09050530       37       0.36600935      -0.57579551       1.35161317      -0.05360073      -0.07626325      -0.08206046
C       -3.51207206       1.89165448      10.03289656       38      -0.27702103       0.36712178       0.74445208       0.06052530      -0.10293435      -0.03488871
C        4.53443453       2.52081132       0.45128094       39      -0.47025582       0.22782501       0.51146167      -0.09947294      -0.06571987       0.03490269
C       -0.32593927       1.35886302       2.34265801       40      -0.11966996      -0.73251108       0.28611321      -0.02487540      -0.04884097       0.03836688
C        0.34202778      -1.28942579       8.14151949       41       0.57030904      -0.50578053       0.01064034       0.00090514      -0.05509111      -0.03821145
C       -2.26824862       3.05565688       5.86632716       42      -0.48098077       0.96238649       0.55365818       0.02524310      -0.06073712       0.01393162
C        2.83264719      -0.61974062       4.61785033       43      -0.04860277      -0.55844948       0.33742963      -0.04932045      -0.04330873      -0.01374415
C        6.25520752       1.00761601       2.89943074       44      -0.70747446      -0.11378709      -0.42767829       0.02487101       0.04884486      -0.03836742
C       -5.72298598       1.28942580       7.58474676       45       0.19434055       0.24831833       0.14297097      -0.00092463       0.05507559       0.03821289
C       -2.01608948       1.67730118       9.85993908       46       0.09740524      -0.72425149      -0.69205550      -0.02525449       0.06073079      -0.01389912
C        3.09662106       2.98621965       0.62423841       47      -0.12331172      -0.02208015       0.38636924       0.04932792       0.04330567       0.01374286
O       -0.42625656       2.75924355       4.28180099       48       1.20625674       0.48604619      -0.44497158       0.00567066      -0.06416598       0.01081769
O        1.04798334      -0.07585512       6.20237650       49       0.42305791      -1.01659881      -0.20166176      -0.03317354      -0.05508569      -0.01086261
O       -1.17294689      -0.80803189       6.28015861       50      -0.36133290       0.99731317      -0.30860065      -0.00324941      -0.06212823      -0.01994137
O        1.24638404       1.12493657       4.20401888       51      -0.92624698      -0.21254257      -0.34164539      -0.02462155      -0.05716392       0.01989322
O       -3.30977150       4.34019353       0.96028775       52       0.26500009      -0.83301049      -0.49473951      -0.00567096       0.06416601      -0.01082105
O        4.33297486       0.07585512       9.52388974       53      -0.48283211      -0.49689578       1.25894465       0.03316779       0.05508566       0.01086760
O       -4.20801131       0.80803190       9.44610763       54       0.43498781      -0.06064940      -0.51538975       0.00324844       0.06213051       0.01994601
O        4.68288421       1.24154246       1.03806987       55       0.06343698      -0.82659266      -1.04828579       0.02462479       0.05716896      -0.01989750
56
Lattice="10.7619164 0.0 0.0 -9.665296305262016 4.732958053065482 0.0 -0.5483100463354086 -2.3664790220718444 10.484177494289693" Properties=species:S:1:pos:R:3:spacegroup_kinds:I:1:momenta:R:3:forces:R:3 spacegroup="P 1" unit_cell=conventional occupancy="_JSON {\"0\": {\"H\": 1}, \"1\": {\"H\": 1}, \"2\": {\"H\": 1}, \"3\": {\"H\": 1}, \"4\": {\"H\": 1}, \"5\": {\"H\": 1}, \"6\": {\"H\": 1}, \"7\": {\"H\": 1}, \"8\": {\"H\": 1}, \"9\": {\"H\": 1}, \"10\": {\"H\": 1}, \"11\": {\"H\": 1}, \"12\": {\"H\": 1}, \"13\": {\"H\": 1}, \"14\": {\"H\": 1}, \"15\": {\"H\": 1}, \"16\": {\"H\": 1}, \"17\": {\"H\": 1}, \"18\": {\"H\": 1}, \"19\": {\"H\": 1}, \"20\": {\"H\": 1}, \"21\": {\"H\": 1}, \"22\": {\"H\": 1}, \"23\": {\"H\": 1}, \"24\": {\"H\": 1}, \"25\": {\"H\": 1}, \"26\": {\"H\": 1}, \"27\": {\"H\": 1}, \"28\": {\"H\": 1}, \"29\": {\"H\": 1}, \"30\": {\"H\": 1}, \"31\": {\"H\": 1}, \"32\": {\"C\": 1}, \"33\": {\"C\": 1}, \"34\": {\"C\": 1}, \"35\": {\"C\": 1}, \"36\": {\"C\": 1}, \"37\": {\"C\": 1}, \"38\": {\"C\": 1}, \"39\": {\"C\": 1}, \"40\": {\"C\": 1}, \"41\": {\"C\": 1}, \"42\": {\"C\": 1}, \"43\": {\"C\": 1}, \"44\": {\"C\": 1}, \"45\": {\"C\": 1}, \"46\": {\"C\": 1}, \"47\": {\"C\": 1}, \"48\": {\"O\": 1}, \"49\": {\"O\": 1}, \"50\": {\"O\": 1}, \"51\": {\"O\": 1}, \"52\": {\"O\": 1}, \"53\": {\"O\": 1}, \"54\": {\"O\": 1}, \"55\": {\"O\": 1}}" energy=-314.163330078125 free_energy=-314.163330078125 stress="0.0017965607112273574 -0.006295033264905214 0.004064938984811306 -0.006295033264905214 0.0028975566383451223 0.006800176575779915 0.004064938984811306 0.006800176575779915 -0.004473628010600805" pbc="T T T"
H        0.12223859       2.21335579       1.84744820        0      -0.06388242      -0.04108045      -0.23331067      -0.34890515      -0.46717662       0.26391673
H        0.31702072      -0.21474884       8.50409127        1      -0.41596669       0.28241799       0.13417982       0.19316711      -0.82259011      -0.04442123
H        7.16689586      -0.52337018       5.79422135        2      -0.01099334       0.09115212       0.18553087      -0.25331533       0.53085113      -0.08150335
H        3.56769346       0.19128018       4.81695807        3       0.00635050       0.03106396      -0.05661330      -0.45246893      -0.59983361       0.03513645
H        5.89857394       0.12906193       3.45590352        4      -0.13662970       0.06346629       0.07412529      -0.11012735      -0.04154740      -0.10463334
H        5.01440549       0.32414384       7.14335937        5       0.11996957      -0.01313411       0.16304574      -0.17231183      -0.44180584      -0.12289581
H       -1.69404179       0.62953434       9.70230157        6      -0.06773580       0.00953627      -0.07983926      -0.29939756      -0.31745818       0.05525940
H        2.37945907       2.25462943       0.31380993        7      -0.10899684       0.12801571      -0.23887820      -0.36571077      -0.41984615      -0.02494862
H       -1.28062218       1.09681356       2.00394188        8       0.10394063       0.17626278      -0.14567631      -0.56132495      -0.12197542      -0.18949646
H       -8.36548937       3.00985769       8.44664936        9       0.01874357       0.07750841      -0.14054404       0.39231914      -0.31946689      -0.01170098
H       -2.54664929       2.78893576       6.82205306       10       0.03048620       0.25775630      -0.04488849      -0.41237259      -0.20837772       1.19028425
H       -6.74143407       3.80633211       3.57290637       11       0.32050259       0.15943884       0.02898781       0.31104094       0.03236995       0.37734842
H       -3.41360534       1.09458055       3.05616295       12       0.34318409      -0.23802467       0.07743270      -0.50854087       0.08234642       0.33155930
H       -6.59466940       1.88031609       7.31880478       13       0.01536686       0.03548301       0.08656131      -0.08189696      -0.12137252       0.20796530
H       -1.92963189       2.16013649       8.81427840       14       0.12531100      -0.02323624      -0.06973062       0.40313607      -0.12264660      -0.32056507
H       -7.86690877       3.29972355       1.71696135       15      -0.08477293      -0.03159837       0.12293857      -0.01433865      -0.41004673      -0.77137709
H       -0.90235491       0.77646749       4.33988642       16      -0.08686020      -0.05814816       0.28342580       0.40912461       0.11714710       0.19912326
H        1.57326846       2.69585851       6.02312948       17       0.00715140      -0.12380882      -0.16254815      -0.29899070      -0.23122951       0.25480530
H       -0.61632290       1.91476309       6.12879310       18      -0.08876044       0.01924347      -0.05101238       0.36619473      -0.32495463       0.18464835
H        0.76835887      -0.91704696       4.28843423       19      -0.15605141       0.01894755       0.06988643      -0.03237612       0.22900422       0.08527929
H        6.70609328       1.62092023       0.91686459       20       0.01929263      -0.19191433       0.26163548       0.76997530       0.63578236      -0.47934926
H       -5.82009079       2.01052709       9.75507011       21       0.30326582       0.03656568       0.14022298      -0.00922669      -0.03741097      -0.50983799
H        5.81093413      -1.87039271       9.61285221       22       0.20657588       0.20659817      -0.02039167       0.37428147      -0.52969146       0.33497912
H       -5.59543446       3.24736133       1.04015512       23      -0.04224131      -0.11354979       0.21265894       0.13948426      -0.29077333      -0.10894239
H        0.42784599       0.48710590       2.10176740       24       0.30049787      -0.13610991      -0.00468398      -0.59484464       0.09816448      -0.19185111
H       -0.53518870      -1.77813120       8.52127420       25       0.00655571       0.08690833       0.10595493       0.65831900      -0.06782499      -0.13440582
H       -2.96285662       2.59157640       5.13270580       26      -0.25300673       0.03340907       0.06572307       0.52107251       0.35914707       0.31286681
H       -6.55716734       3.24215838       5.23786854       27      -0.16752525      -0.02805313      -0.10766351       0.03742066      -0.88643539       0.79596168
H       -5.03685276       1.93128219       3.36334305       28      -0.15021116       0.12582500      -0.10191908       0.62859142      -0.83863223      -0.54655397
H       -4.85344595       1.77016491       7.27072596       29      -0.06649159       0.16884084       0.01181274       1.25070977       0.88672340      -0.39223665
H       -0.86175596       4.56432675       0.03964642       30       0.17846358      -0.19144331      -0.07943222      -0.39176011      -0.36752343      -0.55813378
H        2.38301368       1.54051140      10.51636408       31      -0.19060845       0.01911273       0.25222966       0.14690921      -0.16933636       0.11266099
C       -0.17581897       1.46226533       3.84974166       32      -0.18515644      -0.57459544      -0.22058214       0.27883247      -0.44003421       0.08531553
C        0.22192600      -1.12504879       6.58997346       33      -0.07512324      -0.46550137       0.08488180      -0.55275786      -0.80494487       0.23250413
C       -0.84336857       2.87265024       5.66245298       34       0.04319854       0.29158507      -0.23378159       1.13017881       0.50398958      -0.24388541
C        1.43229076      -0.18392810       4.79404746       35      -0.39846577      -0.16641801      -0.07506705      -1.39263260       0.15176982      -0.49471232
C        6.06713488       0.93900035       1.43224268       36      -0.39497143      -0.32073292      -0.80955224      -1.35843968      -1.50483680      -0.67591709
C       -5.58329451       1.10380715       9.15771830       37      -0.36193219      -0.01752075       0.07000833      -0.01275074       0.62095529      -0.17375597
C       -3.52181741       1.89477508      10.09402550       38       0.16177546      -0.52863259       0.28467012       0.13258305       0.16549839      -2.07575583
C        4.51640584       2.52102928       0.51005713       39       0.36138342      -0.43527655       0.58505071       0.14679193       0.12096145       0.07939608
C       -0.28405294       1.30051714       2.35611375       40       0.19195186      -0.55821542       0.03644850       1.44869888       0.72397137      -0.52214867
C        0.37449211      -1.27541848       8.11748206       41       0.14753534       0.49373550      -0.46888063      -1.73078060       1.54831362      -0.36516765
C       -2.30636825       3.14844781       5.85186587       42      -0.25949209       1.26103849      -0.54787120      -0.30482712      -0.37170506      -1.63763273
C        2.84200268      -0.65064888       4.64737902       43       0.56034539      -0.10141625      -0.32885506       0.85266149       1.99939609      -1.91113758
C        6.24443652       1.02088160       2.92126917       44       0.40080532      -0.06552272       0.31202209       0.30223960       0.54350197       0.34550285
C       -5.72072982       1.29321543       7.63361805       45      -0.11247053      -0.13664548       1.05760903      -1.14457846      -0.53768796       0.96595287
C       -2.05012739       1.65516314       9.77267023       46      -0.47453596       0.69520784      -0.54057351       0.62453264       1.48065019       1.00712824
C        3.08351633       3.00246315       0.64822751       47      -0.01605095       0.11556227       0.01381023       0.20967245       0.51371795       0.80871856
O       -0.35411231       2.78763683       4.26978768       48       0.22350754       0.25056269       0.25663323      -1.10039890       0.01685658       0.20638016
O        1.06167984      -0.11984225       6.16496940       49      -0.16821863      -0.55392449      -0.45958744       0.11151894       0.85498327       0.49101338
O       -1.21357942      -0.78977938       6.25156088       50      -0.33543361      -0.44277453      -0.25066837       0.73390621      -0.39541659       0.41342324
O        1.20697421       1.13024276       4.19342496       51       0.17004619       0.12777116       0.14454290       0.59316152      -1.04898477       0.70126736
O       -3.31489246       4.29054000       0.93958224       52      -0.41183541      -0.17658506       0.40053882      -0.10514048       0.93135363       2.17609096
O        4.33821577       0.06296653       9.62059751       53       0.35992283       0.45633102       0.21462735       0.43338037       0.52331960      -1.13898158
O       -4.17202257       0.83010247       9.41381798       54       0.02043470       0.24051370      -0.02777858      -0.78841072      -0.43916023       0.27765226
O        4.70668947       1.20000077       0.96656717       55       0.53785601      -0.22599731      -0.23686568      -0.20127946       0.02995260       1.29980850
56
Lattice="10.7619164 0.0 0.0 -9.665296305262016 4.732958053065482 0.0 -0.5483100463354086 -2.3664790220718444 10.484177494289693" Properties=species:S:1:pos:R:3:spacegroup_kinds:I:1:momenta:R:3:forces:R:3 spacegroup="P 1" unit_cell=conventional occupancy="_JSON {\"0\": {\"H\": 1}, \"1\": {\"H\": 1}, \"2\": {\"H\": 1}, \"3\": {\"H\": 1}, \"4\": {\"H\": 1}, \"5\": {\"H\": 1}, \"6\": {\"H\": 1}, \"7\": {\"H\": 1}, \"8\": {\"H\": 1}, \"9\": {\"H\": 1}, \"10\": {\"H\": 1}, \"11\": {\"H\": 1}, \"12\": {\"H\": 1}, \"13\": {\"H\": 1}, \"14\": {\"H\": 1}, \"15\": {\"H\": 1}, \"16\": {\"H\": 1}, \"17\": {\"H\": 1}, \"18\": {\"H\": 1}, \"19\": {\"H\": 1}, \"20\": {\"H\": 1}, \"21\": {\"H\": 1}, \"22\": {\"H\": 1}, \"23\": {\"H\": 1}, \"24\": {\"H\": 1}, \"25\": {\"H\": 1}, \"26\": {\"H\": 1}, \"27\": {\"H\": 1}, \"28\": {\"H\": 1}, \"29\": {\"H\": 1}, \"30\": {\"H\": 1}, \"31\": {\"H\": 1}, \"32\": {\"C\": 1}, \"33\": {\"C\": 1}, \"34\": {\"C\": 1}, \"35\": {\"C\": 1}, \"36\": {\"C\": 1}, \"37\": {\"C\": 1}, \"38\": {\"C\": 1}, \"39\": {\"C\": 1}, \"40\": {\"C\": 1}, \"41\": {\"C\": 1}, \"42\": {\"C\": 1}, \"43\": {\"C\": 1}, \"44\": {\"C\": 1}, \"45\": {\"C\": 1}, \"46\": {\"C\": 1}, \"47\": {\"C\": 1}, \"48\": {\"O\": 1}, \"49\": {\"O\": 1}, \"50\": {\"O\": 1}, \"51\": {\"O\": 1}, \"52\": {\"O\": 1}, \"53\": {\"O\": 1}, \"54\": {\"O\": 1}, \"55\": {\"O\": 1}}" energy=-313.85382080078125 free_energy=-313.85382080078125 stress="0.013761349022388458 -0.004879402462393045 -0.00567432027310133 -0.004879402462393045 0.006163876969367266 0.0054760524071753025 -0.00567432027310133 0.0054760524071753025 -0.0018128565279766917" pbc="T T T"
H        0.15152026       2.21865815       1.86996605        0       0.18670799      -0.17536465       0.06887311      -0.25463051      -0.83075428       0.05804906
H        0.10920509      -0.19334259       8.62244512        1      -0.00897904       0.26460710      -0.03107033       0.20135967      -1.45994449      -1.01799464
H        7.15516432      -0.39883626       5.76710604        2       0.22383243       0.15937145      -0.34067685       0.18644553       0.19728072      -0.26340470
H        3.55287390       0.14212054       5.10648282        3      -0.16824442      -0.25377465       0.22539363      -0.53552675      -0.32389927      -0.69896001
H        5.71904802       0.28007962       3.48878619        4      -0.14175090       0.06957656       0.07981248      -0.42628980      -0.45673177       0.12704365
H        5.07217442       0.33732696       7.23278698        5      -0.02221048       0.07819955       0.03358506       0.14585111      -0.33883464      -0.34743673
H       -1.86337460       0.61454906       9.70908646        6       0.00209985      -0.06951315       0.02682892       0.35397255       0.27212694       0.03441969
H        2.40409157       2.23500128       0.27412506        7      -0.05904504      -0.08227815      -0.03197360       0.20295043       0.43273622      -0.32657430
H       -1.27779530       1.10993522       2.00836790        8      -0.09536170      -0.13044338       0.02708146      -0.83866203       0.04002966      -0.43665367
H       -8.33962600       3.21420945       8.35225618        9       0.17273903       0.29406190      -0.08361717       0.23368207       0.22765540      -0.09218054
H       -2.54133523       3.01261348       6.85842842       10       0.10491067       0.07367833       0.12018038      -0.11240876      -0.33224472       0.81576610
H       -6.39093377       3.84895166       3.60576975       11       0.14443695       0.00657623      -0.00789914      -0.26307139       0.31059751      -0.29987097
H       -3.37778195       0.94136172       3.24468005       12       0.01522335      -0.07500941       0.19342096      -1.33400667      -0.10755609      -0.76893353
H       -6.68609548       1.78694181       7.51153393       13      -0.08667827      -0.27258686      -0.01170134      -0.20094815      -0.13165170      -0.15521544
H       -1.76453241       2.05976700       8.70170615       14       0.02189838      -0.10309646       0.09738939      -0.31269425       0.19350274       0.31044051
H       -7.95446009       3.02340532       1.79564979       15      -0.04973549      -0.11226866       0.02076792       0.41189545       0.38057777      -1.18562174
H       -0.80018672       0.77039125       4.49092965       16       0.00831338      -0.06072634      -0.00660568       0.00097002       0.17438748      -0.99411571
H        1.44500773       2.50713095       6.17382276       17       0.01225028      -0.28997459      -0.01209826       0.24866398       1.14403462       0.13491344
H       -0.56090754       1.92546792       6.04306250       18       0.00912421       0.02953098      -0.02228984      -0.35387129      -0.16755056       0.13082799
H        0.67939896      -0.89355042       4.27079637       19       0.07644913      -0.05095168      -0.04691378       0.30056816      -0.10530252      -0.07735552
H        6.74714444       1.49845909       0.85340925       20      -0.11245939      -0.08927558      -0.22056980       0.51640904       1.18712068      -0.49470928
H       -5.80988204       2.10952460       9.71365889       21      -0.20491571       0.06817214      -0.10894770       0.02467427      -0.34780294      -0.22419551
H        5.87596094      -1.83571088       9.70363727       22      -0.16165001       0.07076730       0.03590469      -0.15178724      -0.88952613      -0.00086386
H       -5.50015874       3.11440192       1.13784154       23       0.11933123       0.03126391      -0.00442148      -0.11865266       0.35620677      -0.32355124
H        0.36855201       0.33657775       1.99417357       24      -0.04607103      -0.23447357      -0.15432086      -1.04204166       1.71019292       0.43702197
H       -0.32413893      -2.00709548       8.53026264       25       0.20339027      -0.17844296      -0.18322126       0.05246536       0.67889273      -0.27905440
H       -3.08714240       2.74677634       5.19721888       26      -0.01915487       0.07455426      -0.09249902       0.58998179       0.03474100       0.12558210
H       -6.69673474       3.25872585       5.21696387       27      -0.09696513      -0.06688941      -0.04755586       0.17544343      -1.07493043       0.50442201
H       -4.83143347       2.04721339       3.16449854       28       0.33766936       0.12941320       0.00705016       0.39477694      -1.34766865      -0.01897237
H       -4.93754018       1.99042852       7.37634377       29       0.05868995       0.23203750       0.01089319      -0.29874119      -0.47476715      -0.05642260
H       -0.81005399       4.51876366       0.00822822       30      -0.20155830       0.23295178      -0.03457275      -0.26691496      -0.02006615      -0.48482347
H        2.48120423       1.62674264      10.66760480       31       0.30393429      -0.01816162       0.05312289      -0.25146630      -0.60053098       0.38425598
C       -0.17497678       1.41202888       3.81608587       32       0.11041292      -0.26316008      -0.10980241       0.95673221       0.41550416       1.33581102
C        0.16861400      -1.18805869       6.60335741       33      -0.76776857       0.02200118       0.67404012      -0.22194324       0.09041260      -0.69299996
C       -0.81165542       2.89924225       5.59186426       34      -0.05282410       0.32732927      -0.63230728      -1.19237518      -0.34071583       0.60170031
C        1.38527143      -0.18167028       4.74198785       35       0.10269950       0.21879199      -0.68694712       0.81695396      -0.55122221      -0.59415019
C        6.06620574       0.86818199       1.37965231       36       0.53230831      -0.54626154       0.08532774      -0.00823045      -0.53997338       1.85034180
C       -5.59710015       1.15461053       9.17270550       37       0.05871120       1.06856383       0.55336509       0.70454407       0.84736544       1.79725456
C       -3.48648165       1.86752583      10.06803995       38       0.30032653       0.37939459      -0.58623070      -0.95997709       1.52577114      -0.53066266