56
Lattice="10.7619164 0.0 0.0 -9.665296305262016 4.732958053065482 0.0 -0.5483100463354086 -2.3664790220718444 10.484177494289693" Properties=species:S:1:pos:R:3:spacegroup_kinds:I:1:forces:R:3 spacegroup="P 1" unit_cell=conventional occupancy="_JSON {\"0\": {\"H\": 1}, \"1\": {\"H\": 1}, \"2\": {\"H\": 1}, \"3\": {\"H\": 1}, \"4\": {\"H\": 1}, \"5\": {\"H\": 1}, \"6\": {\"H\": 1}, \"7\": {\"H\": 1}, \"8\": {\"H\": 1}, \"9\": {\"H\": 1}, \"10\": {\"H\": 1}, \"11\": {\"H\": 1}, \"12\": {\"H\": 1}, \"13\": {\"H\": 1}, \"14\": {\"H\": 1}, \"15\": {\"H\": 1}, \"16\": {\"H\": 1}, \"17\": {\"H\": 1}, \"18\": {\"H\": 1}, \"19\": {\"H\": 1}, \"20\": {\"H\": 1}, \"21\": {\"H\": 1}, \"22\": {\"H\": 1}, \"23\": {\"H\": 1}, \"24\": {\"H\": 1}, \"25\": {\"H\": 1}, \"26\": {\"H\": 1}, \"27\": {\"H\": 1}, \"28\": {\"H\": 1}, \"29\": {\"H\": 1}, \"30\": {\"H\": 1}, \"31\": {\"H\": 1}, \"32\": {\"C\": 1}, \"33\": {\"C\": 1}, \"34\": {\"C\": 1}, \"35\": {\"C\": 1}, \"36\": {\"C\": 1}, \"37\": {\"C\": 1}, \"38\": {\"C\": 1}, \"39\": {\"C\": 1}, \"40\": {\"C\": 1}, \"41\": {\"C\": 1}, \"42\": {\"C\": 1}, \"43\": {\"C\": 1}, \"44\": {\"C\": 1}, \"45\": {\"C\": 1}, \"46\": {\"C\": 1}, \"47\": {\"C\": 1}, \"48\": {\"O\": 1}, \"49\": {\"O\": 1}, \"50\": {\"O\": 1}, \"51\": {\"O\": 1}, \"52\": {\"O\": 1}, \"53\": {\"O\": 1}, \"54\": {\"O\": 1}, \"55\": {\"O\": 1}}" energy=-315.20623779296875 free_energy=-315.20623779296875 stress="0.0015259895008057356 -0.0007349668885581195 -5.968067284811696e-07 -0.0007349668885581195 -0.0014768543187528849 4.171619849557828e-08 -5.968067284811696e-07 4.171619849557828e-08 0.0016979868523776531" pbc="T T T"
H       -0.01248427       2.27696696       1.83153339        0       0.07122743       0.02707774       0.05251645
H        0.46428407      -0.32702137       8.65264411        1      -0.05205613       0.05564412      -0.05251585
H        7.11696904      -0.62167877       5.76820574        2       0.06071794       0.02959760      -0.06332447
H        3.54843712       0.20514534       4.71597175        3      -0.04159874       0.05318701       0.06330384
H        5.94175252       0.08951207       3.41055536        4      -0.07122697      -0.02707691      -0.05251785
H        4.91667413       0.32702137       7.07362213        5       0.05205722      -0.05563881       0.05251937
H       -1.73601084       0.62167878       9.95806050        6      -0.06071852      -0.02958531       0.06332478
H        2.38083113       2.16133369       0.52611700        7       0.04159793      -0.05318627      -0.06330098
H       -1.38564785       1.18011340       2.11584331        8       0.00912129       0.09641463       0.00989597
H       -8.45014457       2.81694541       8.36833418        9       0.03391310       0.09078160      -0.00993997
H       -2.58250803       2.70418269       6.85836100       10       0.03144365       0.09145410       0.01228210
H       -6.70499477       3.65935988       3.62581649       11       0.01202234       0.09588322      -0.01239233
H       -3.44700030       1.18636563       3.12624543       12      -0.00912206      -0.09641394      -0.00989552
H       -6.59610993       1.91601265       7.35793206       13      -0.03391618      -0.09078136       0.00994121
H       -1.70183007       2.02877537       8.86790524       14      -0.03144046      -0.09144840      -0.01229302
H       -7.79294969       3.44007720       1.61627226       15      -0.01202457      -0.09588470       0.01238984
H       -0.77544238       0.72057867       4.36236141       16      -0.05580251      -0.06497569       0.06553192
H        1.56164860       2.67260202       6.12181608       17       0.02151136      -0.08285732      -0.06550536
H       -0.46393564       1.89516633       6.16016720       18       0.04679104      -0.08891319       0.03981809
H        0.70181139      -0.86845994       4.32401029       19      -0.08095914      -0.05914045      -0.03975105
H        6.70471062       1.64590036       0.87972733       20       0.05580518       0.06498097      -0.06553370
H       -5.84598670       2.06035604       9.60445016       21      -0.02151358       0.08285316       0.06550384
H        5.84489385      -1.89516633       9.56609904       22      -0.04679279       0.08891500      -0.03981568
H       -5.53445954       3.23493897       0.91807845       23       0.08095744       0.05914025       0.03974706
H        0.25131050       0.51347389       1.94957474       24      -0.00851074      -0.01871613      -0.03717730
H       -0.54820374      -1.79480395       8.53460275       25      -0.00032995      -0.02044808       0.03709354
H       -2.80766320       2.46899490       5.11315433       26      -0.04083837      -0.01125213       0.00405183
H       -6.60619587       3.34910738       5.37102316       27       0.03167394      -0.02802492      -0.00411359
H       -5.08395866       1.85300514       3.29251401       28       0.00851561       0.01871232       0.03717760
H       -4.83275446       1.79480396       7.19166349       29       0.00034749       0.02045771      -0.03709880
H       -0.92836486       4.63044218       0.12893441       30       0.04083268       0.01124326      -0.00406436
H        2.32185777       1.38385068      10.35524308       31      -0.03167585       0.02802802       0.00411099
C       -0.12835063       1.44534837       3.84841655       32      -0.01445542       0.09213153      -0.08206746
C        0.20260826      -1.12485611       6.63576095       33       0.05361614       0.07627209       0.08205724
C       -0.77226604       2.84130358       5.69336968       34      -0.06051165       0.10292879       0.03487879
C        1.39483372      -0.15433229       4.79080781       35       0.09947464       0.06571010      -0.03489288
C        6.05761888       0.92113066       1.39367220       36       0.01444769      -0.09213766       0.08206865
C       -5.58356646       1.12485611       9.09050530       37      -0.05360073      -0.07626325      -0.08206046
C       -3.51207206       1.89165448      10.03289656       38       0.06052530      -0.10293435      -0.03488871
C        4.53443453       2.52081132       0.45128094       39      -0.09947294      -0.06571987       0.03490269
C       -0.32593927       1.35886302       2.34265801       40      -0.02487540      -0.04884097       0.03836688
C        0.34202778      -1.28942579       8.14151949       41       0.00090514      -0.05509111      -0.03821145
C       -2.26824862       3.05565688       5.86632716       42       0.02524310      -0.06073712       0.01393162
C        2.83264719      -0.61974062       4.61785033       43      -0.04932045      -0.04330873      -0.01374415
C        6.25520752       1.00761601       2.89943074       44       0.02487101       0.04884486      -0.03836742
C       -5.72298598       1.28942580       7.58474676       45      -0.00092463       0.05507559       0.03821289
C       -2.01608948       1.67730118       9.85993908       46      -0.02525449       0.06073079      -0.01389912
C        3.09662106       2.98621965       0.62423841       47       0.04932792       0.04330567       0.01374286
O       -0.42625656       2.75924355       4.28180099       48       0.00567066      -0.06416598       0.01081769
O        1.04798334      -0.07585512       6.20237650       49      -0.03317354      -0.05508569      -0.01086261
O       -1.17294689      -0.80803189       6.28015861       50      -0.00324941      -0.06212823      -0.01994137
O        1.24638404       1.12493657       4.20401888       51      -0.02462155      -0.05716392       0.01989322
O       -3.30977150       4.34019353       0.96028775       52      -0.00567096       0.06416601      -0.01082105
O        4.33297486       0.07585512       9.52388974       53       0.03316779       0.05508566       0.01086760
O       -4.20801131       0.80803190       9.44610763       54       0.00324844       0.06213051       0.01994601
O        4.68288421       1.24154246       1.03806987       55       0.02462479       0.05716896      -0.01989750
