32
Lattice="6.17176593 0.0 0.0 0.0 8.01859859 0.0 0.0 0.0 13.03281824" Properties=species:S:1:pos:R:3:spacegroup_kinds:I:1:forces:R:3 spacegroup="P 1" unit_cell=conventional occupancy="_JSON {\"0\": {\"Li\": 1}, \"1\": {\"Li\": 1}, \"2\": {\"Li\": 1}, \"3\": {\"Li\": 1}, \"4\": {\"Li\": 1}, \"5\": {\"Li\": 1}, \"6\": {\"Li\": 1}, \"7\": {\"Li\": 1}, \"8\": {\"Li\": 1}, \"9\": {\"Li\": 1}, \"10\": {\"Li\": 1}, \"11\": {\"Li\": 1}, \"12\": {\"P\": 1}, \"13\": {\"P\": 1}, \"14\": {\"P\": 1}, \"15\": {\"P\": 1}, \"16\": {\"S\": 1}, \"17\": {\"S\": 1}, \"18\": {\"S\": 1}, \"19\": {\"S\": 1}, \"20\": {\"S\": 1}, \"21\": {\"S\": 1}, \"22\": {\"S\": 1}, \"23\": {\"S\": 1}, \"24\": {\"S\": 1}, \"25\": {\"S\": 1}, \"26\": {\"S\": 1}, \"27\": {\"S\": 1}, \"28\": {\"S\": 1}, \"29\": {\"S\": 1}, \"30\": {\"S\": 1}, \"31\": {\"S\": 1}}" energy=-140.3463134765625 free_energy=-140.3463134765625 stress="-0.0028886415529996157 -6.298765509171744e-09 -5.41194644654297e-09 -6.298765509171744e-09 -0.0040722619742155075 2.169281110298016e-08 -5.41194644654297e-09 2.169281110298016e-08 -0.002593577140942216" pbc="T T T"
Li       2.40166814       0.26892251       4.33377961        0      -0.01548903       0.00235935       0.00063540
Li       3.77009793       7.74967600       8.69903848        1       0.01548916      -0.00236156      -0.00063138
Li       5.48755105       7.74967604       2.18262940        2      -0.01549289      -0.00236029      -0.00063298
Li       0.68421478       0.26892252      10.85018871        3       0.01549180       0.00236209       0.00063153
Li       3.77009789       4.27822193       8.69903838        4       0.01548821       0.00235915      -0.00063486
Li       2.40166817       3.74037679       4.33377960        5      -0.01549004      -0.00236051       0.00063360
Li       0.68421478       3.74037680      10.85018872        6       0.01549052      -0.00236037       0.00063205
Li       5.48755103       4.27822187       2.18262940        7      -0.01549119       0.00235960      -0.00062980
Li       3.08588287      -0.00000015       0.00000010        8      -0.00000119      -0.00000051      -0.00000140
Li       0.00000002      -0.00000011       6.51640927        9       0.00000091       0.00000206      -0.00000161
Li       3.08588295       4.00929936       0.00000006       10      -0.00000161      -0.00000273       0.00000088
Li      -0.00000002       4.00929927       6.51640918       11       0.00000060      -0.00000122      -0.00000225
P        0.93932958       2.00464942       1.16793474       12      -0.00066824       0.00001494       0.03303196
P        5.23243627       6.01394874      11.86488421       13       0.00066623       0.00000770      -0.03305747
P        4.02521222       6.01394891       5.34847528       14      -0.00065105       0.00000130      -0.03306284
P        2.14655385       2.00464961       7.68434324       15       0.00065440      -0.00000038       0.03305345
S        5.07612367       2.00464971       1.30682515       16       0.00280134       0.00000121       0.01274875
S        1.09564230       6.01394879      11.72599292       17      -0.00280092      -0.00000005      -0.01274642
S        1.99024105       6.01394898       5.20958385       18       0.00279263       0.00000106      -0.01274419
S        4.18152502       2.00464968       7.82323414       19      -0.00279316      -0.00000131       0.01274802
S        1.68772170       2.00464970      12.25093569       20       0.03397129      -0.00000113       0.02524734
S        4.48404416       6.01394888       0.78188254       21      -0.03397270      -0.00000025      -0.02523697
S        4.77360468       6.01394894       7.29829153       22       0.03397218       0.00000098      -0.02523711
S        1.39816138       2.00464969       5.73452697       23      -0.03397335      -0.00000046       0.02524033
S        1.68016694       0.28147997       2.00960385       24       0.02273583      -0.00260193      -0.01691429
S        4.49159905       7.73711926      11.02321409       25      -0.02272838       0.00258482       0.01692553
S        4.76604988       7.73711922       4.50680509       26       0.02272880       0.00258227       0.01692907
S        1.40571582       0.28147959       8.52601311       27      -0.02272804      -0.00258536      -0.01692758
S        4.49159901       4.29077891      11.02321426       28      -0.02273409      -0.00259193       0.01692342
S        1.68016708       3.72781964       2.00960388       29       0.02273062       0.00258856      -0.01692301
S        1.40571581       3.72781969       8.52601311       30      -0.02272725       0.00258622      -0.01692644
S        4.76604991       4.29077870       4.50680504       31       0.02272875      -0.00258109       0.01692912
