4
Lattice="3.128588 0.0 0.0 -1.5642939988088433 2.709436998432005 0.0 0.0 0.0 5.016955" Properties=species:S:1:pos:R:3:spacegroup_kinds:I:1:forces:R:3 spacegroup="P 1" unit_cell=conventional occupancy="_JSON {\"0\": {\"Al\": 1}, \"1\": {\"Al\": 1}, \"2\": {\"N\": 1}, \"3\": {\"N\": 1}}" energy=-29.673717498779297 free_energy=-29.673717498779297 stress="-0.0022254695650190115 -1.4189135981723666e-06 1.3339083615448999e-08 -1.4189135981723666e-06 -0.00222742254845798 -3.707913975858901e-08 1.3339083615448999e-08 -3.707913975858901e-08 -0.005453653633594513" pbc="T T T"
Al       1.56429556       0.90314476       2.50490041        0      -0.00003595       0.00001979       0.00553285
Al      -0.00000156       1.80629224       5.01337791        1       0.00003551      -0.00001865       0.00552408
N        1.56429556       0.90314476       4.41849749        2      -0.00003716       0.00001915      -0.00553031
N       -0.00000156       1.80629224       1.91001999        3       0.00003770      -0.00002049      -0.00552619
