32
Lattice="6.17176593 0.0 0.0 0.0 8.01859859 0.0 0.0 0.0 13.03281824" Properties=species:S:1:pos:R:3:spacegroup_kinds:I:1:forces:R:3 spacegroup="P 1" unit_cell=conventional occupancy="_JSON {\"0\": {\"Li\": 1}, \"1\": {\"Li\": 1}, \"2\": {\"Li\": 1}, \"3\": {\"Li\": 1}, \"4\": {\"Li\": 1}, \"5\": {\"Li\": 1}, \"6\": {\"Li\": 1}, \"7\": {\"Li\": 1}, \"8\": {\"Li\": 1}, \"9\": {\"Li\": 1}, \"10\": {\"Li\": 1}, \"11\": {\"Li\": 1}, \"12\": {\"P\": 1}, \"13\": {\"P\": 1}, \"14\": {\"P\": 1}, \"15\": {\"P\": 1}, \"16\": {\"S\": 1}, \"17\": {\"S\": 1}, \"18\": {\"S\": 1}, \"19\": {\"S\": 1}, \"20\": {\"S\": 1}, \"21\": {\"S\": 1}, \"22\": {\"S\": 1}, \"23\": {\"S\": 1}, \"24\": {\"S\": 1}, \"25\": {\"S\": 1}, \"26\": {\"S\": 1}, \"27\": {\"S\": 1}, \"28\": {\"S\": 1}, \"29\": {\"S\": 1}, \"30\": {\"S\": 1}, \"31\": {\"S\": 1}}" energy=-140.3463134765625 free_energy=-140.3463134765625 stress="-0.00288863992318511 -6.70964217519554e-09 1.975331542780623e-08 -6.70964217519554e-09 -0.004072239156812429 1.5121615071223005e-09 1.975331542780623e-08 1.5121615071223005e-09 -0.0025935815647244453" pbc="T T T"
Li       2.40166818       0.26892251       4.33377960        0      -0.01548958       0.00236055       0.00063450
Li       3.77009792       7.74967597       8.69903848        1       0.01548869      -0.00235819      -0.00063359
Li       5.48755107       7.74967605       2.18262942        2      -0.01549290      -0.00236037      -0.00063249
Li       0.68421476       0.26892245      10.85018871        3       0.01549053       0.00236120       0.00063143
Li       3.77009788       4.27822192       8.69903840        4       0.01548855       0.00235871      -0.00063436
Li       2.40166814       3.74037676       4.33377959        5      -0.01548931      -0.00235931       0.00063392
Li       0.68421482       3.74037679      10.85018870        6       0.01549004      -0.00235992       0.00063163
Li       5.48755102       4.27822185       2.18262938        7      -0.01549220       0.00236060      -0.00062990
Li       3.08588291      -0.00000009       0.00000005        8       0.00000014      -0.00000054      -0.00000060
Li       0.00000005      -0.00000010       6.51640920        9       0.00000106       0.00000151      -0.00000192
Li       3.08588292       4.00929950       0.00000012       10      -0.00000144      -0.00000166       0.00000197
Li      -0.00000002       4.00929927       6.51640916       11       0.00000095      -0.00000090      -0.00000059
P        0.93932954       2.00464933       1.16793471       12      -0.00066788       0.00001040       0.03303578
P        5.23243629       6.01394892      11.86488426       13       0.00066637       0.00000704      -0.03305846
P        4.02521222       6.01394894       5.34847527       14      -0.00065023       0.00000149      -0.03306316
P        2.14655384       2.00464972       7.68434322       15       0.00065460      -0.00000076       0.03305243
S        5.07612359       2.00464961       1.30682513       16       0.00280181      -0.00000028       0.01274912
S        1.09564238       6.01394889      11.72599295       17      -0.00280190       0.00000006      -0.01274704
S        1.99024097       6.01394892       5.20958388       18       0.00279151       0.00000067      -0.01274370
S        4.18152502       2.00464965       7.82323419       19      -0.00279202      -0.00000108       0.01274626
S        1.68772174       2.00464967      12.25093565       20       0.03397030      -0.00000037       0.02525036
S        4.48404414       6.01394887       0.78188254       21      -0.03397290      -0.00000089      -0.02523626
S        4.77360471       6.01394895       7.29829155       22       0.03397293       0.00000030      -0.02523521
S        1.39816134       2.00464966       5.73452698       23      -0.03397351      -0.00000021       0.02524058
S        1.68016701       0.28147979       2.00960381       24       0.02273446      -0.00259524      -0.01691771
S        4.49159898       7.73711927      11.02321411       25      -0.02272872       0.00258514       0.01692537
S        4.76604992       7.73711924       4.50680509       26       0.02272873       0.00258159       0.01692855
S        1.40571579       0.28147959       8.52601310       27      -0.02272718      -0.00258570      -0.01692704
S        4.49159897       4.29077890      11.02321425       28      -0.02273272      -0.00259221       0.01692297
S        1.68016708       3.72781966       2.00960397       29       0.02273097       0.00258560      -0.01692396
S        1.40571582       3.72781973       8.52601313       30      -0.02272739       0.00258548      -0.01692700
S        4.76604993       4.29077865       4.50680500       31       0.02272825      -0.00258266       0.01692819
