4
Lattice="3.128588 0.0 0.0 -1.5642939988088433 2.709436998432005 0.0 0.0 0.0 5.016955" Properties=species:S:1:pos:R:3:spacegroup_kinds:I:1:momenta:R:3:forces:R:3 spacegroup="P 1" unit_cell=conventional occupancy="_JSON {\"0\": {\"Al\": 1}, \"1\": {\"Al\": 1}, \"2\": {\"N\": 1}, \"3\": {\"N\": 1}}" energy=-29.623741149902344 free_energy=-29.623741149902344 stress="0.004300463479012251 -0.008672664873301983 0.0028819350991398096 -0.008672664873301983 -0.006943548563867807 -0.004434396978467703 0.0028819350991398096 -0.004434396978467703 -0.014838934876024723" pbc="T T T"
Al       1.54321203       0.89379623       2.53645980        0      -0.00705437      -0.41529174       0.79445009      -0.25249940       0.39302820      -0.87834287
Al       0.03580899       1.79893954       4.98957808        1       0.09337903      -0.29525185      -0.61191977      -0.16600826       0.14057940       0.62745374
N        1.59619755       0.90645098       4.40111847        2      -0.02189801       1.09350724       0.27120826      -0.08900155      -0.09593557       0.34911567
N       -0.05911258       1.83464204       1.91219265        3      -0.06442667      -0.38296364      -0.45373855       0.50750911      -0.43767196      -0.09822667
