4
Lattice="3.128588 0.0 0.0 -1.5642939988088433 2.709436998432005 0.0 0.0 0.0 5.016955" Properties=species:S:1:pos:R:3:spacegroup_kinds:I:1:momenta:R:3:forces:R:3 spacegroup="P 1" unit_cell=conventional occupancy="_JSON {\"0\": {\"Al\": 1}, \"1\": {\"Al\": 1}, \"2\": {\"N\": 1}, \"3\": {\"N\": 1}}" energy=-29.673717498779297 free_energy=-29.673717498779297 stress="-0.002225306583568454 -1.332777628704207e-06 -2.3707572793796317e-08 -1.332777628704207e-06 -0.0022273415233939886 -4.127486263882929e-08 -2.3707572793796317e-08 -4.127486263882929e-08 -0.005453640129417181" pbc="T T T"
Al       1.56429556       0.90314476       2.50490041        0       0.68448204       0.53670047       0.91071479      -0.00003468       0.00001998       0.00553178
Al      -0.00000156       1.80629224       5.01337791        1       0.31075784       0.39520501      -1.87833745       0.00003450      -0.00001884       0.00552464
N        1.56429556       0.90314476       4.41849749        2      -0.23293981      -0.79739853      -0.40745139      -0.00003655       0.00001928      -0.00553089
N       -0.00000156       1.80629224       1.91001999        3      -0.76230006      -0.13450696       1.37507406       0.00003671      -0.00002052      -0.00552545
4
Lattice="3.128588 0.0 0.0 -1.5642939988088433 2.709436998432005 0.0 0.0 0.0 5.016955" Properties=species:S:1:pos:R:3:spacegroup_kinds:I:1:momenta:R:3:forces:R:3 spacegroup="P 1" unit_cell=conventional occupancy="_JSON {\"0\": {\"Al\": 1}, \"1\": {\"Al\": 1}, \"2\": {\"N\": 1}, \"3\": {\"N\": 1}}" energy=-29.433591842651367 free_energy=-29.433591842651367 stress="-0.013773374259471893 -0.016446398571133614 0.012948832474648952 -0.016446398571133614 -0.02396884374320507 0.009969736449420452 0.012948832474648952 0.009969736449420452 -0.012059347704052925" pbc="T T T"
Al       1.60246141       0.92231284       2.54150849        0       0.57498227      -0.13491987       1.02882496      -1.31301355      -0.49033386      -0.87831223
Al       0.00328788       1.81111139       4.94718774        1      -0.44725807       0.00118058      -1.07867310      -0.30154222      -0.59423304       1.18011749
N        1.53678588       0.85870780       4.38099594        2       0.14052040      -0.46066731       0.20203862       0.28490809       0.67984509       1.25553703
N       -0.05228246       1.80432670       2.00436658        3      -0.26824462       0.59440656      -0.15219051       1.32964754       0.40472150      -1.55734229
4
Lattice="3.128588 0.0 0.0 -1.5642939988088433 2.709436998432005 0.0 0.0 0.0 5.016955" Properties=species:S:1:pos:R:3:spacegroup_kinds:I:1:momenta:R:3:forces:R:3 spacegroup="P 1" unit_cell=conventional occupancy="_JSON {\"0\": {\"Al\": 1}, \"1\": {\"Al\": 1}, \"2\": {\"N\": 1}, \"3\": {\"N\": 1}}" energy=-29.5672550201416 free_energy=-29.5672550201416 stress="0.012915807776153088 0.0017023831605911255 0.003579343669116497 0.0017023831605911255 -0.025856949388980865 -0.005369138903915882 0.003579343669116497 -0.005369138903915882 -0.011435046792030334" pbc="T T T"
Al       1.59598186       0.90138486       2.55101265        0      -0.85003979      -0.64755183      -0.41676321      -0.33522654       0.74370492      -1.26921225
Al      -0.01311800       1.79082858       4.96769658        1      -0.24557027      -0.74327789       1.65595788      -0.18280080      -0.17026788       1.21499681
N        1.52960409       0.86779351       4.41996341        2       0.16413069       0.60763575       0.63654565       0.31887507       0.39321440      -0.09056917
N       -0.00060096       1.87475188       1.90756519        3       0.93147939       0.78319397      -1.87574036       0.19915217      -0.96665132       0.14478451
4
Lattice="3.128588 0.0 0.0 -1.5642939988088433 2.709436998432005 0.0 0.0 0.0 5.016955" Properties=species:S:1:pos:R:3:spacegroup_kinds:I:1:momenta:R:3:forces:R:3 spacegroup="P 1" unit_cell=conventional occupancy="_JSON {\"0\": {\"Al\": 1}, \"1\": {\"Al\": 1}, \"2\": {\"N\": 1}, \"3\": {\"N\": 1}}" energy=-29.406274795532227 free_energy=-29.406274795532227 stress="0.010688801296055317 0.016498150303959846 -0.008164013735949993 0.016498150303959846 -0.009423341602087021 -0.015553982928395271 -0.008164013735949993 -0.015553982928395271 -0.06125416234135628" pbc="T T T"
Al       1.53423929       0.87298460       2.51007452        0      -1.60925390       0.09619204      -1.03262306       0.74608958       1.00298548       0.03482511
Al      -0.01349003       1.78470222       5.05709164        1       0.21561254      -0.04339797       1.72443289       0.02271117       0.40732983      -1.66436982
N        1.55208974       0.92225131       4.42203508        2       0.38659370       0.63935817      -0.93002926       0.04495919      -0.39009732      -0.56986165
N        0.09667396       1.88681819       1.81230439        3       1.00704767      -0.69215223       0.23821946      -0.81375986      -1.02021790       2.19940710
4
Lattice="3.128588 0.0 0.0 -1.5642939988088433 2.709436998432005 0.0 0.0 0.0 5.016955" Properties=species:S:1:pos:R:3:spacegroup_kinds:I:1:momenta:R:3:forces:R:3 spacegroup="P 1" unit_cell=conventional occupancy="_JSON {\"0\": {\"Al\": 1}, \"1\": {\"Al\": 1}, \"2\": {\"N\": 1}, \"3\": {\"N\": 1}}" energy=-29.201904296875 free_energy=-29.201904296875 stress="-0.02644081600010395 0.03815516084432602 -0.03138267621397972 0.03815516084432602 -0.004877370782196522 0.0015437135007232428 -0.03138267621397972 0.0015437135007232428 -0.051819879561662674" pbc="T T T"
Al       1.49382402       0.87740192       2.48150489        0      -0.08661650      -0.02748803       0.25595567       2.48428321      -0.46186370       1.22611427
Al      -0.02076735       1.79337851       5.08843295        1       0.00716746       0.60209052      -1.27068282       0.64723289       0.57433498      -2.36003971
N        1.60157219       0.96971685       4.33361321        2       0.49437254       0.53651057      -0.17473335      -0.53882509      -0.70145309       1.74609137
N        0.13924908       1.81421454       1.89535165        3      -0.41492349      -1.11111306       1.18946054      -2.59269047       0.58898193      -0.61216557
4
Lattice="3.128588 0.0 0.0 -1.5642939988088433 2.709436998432005 0.0 0.0 0.0 5.016955" Properties=species:S:1:pos:R:3:spacegroup_kinds:I:1:momenta:R:3:forces:R:3 spacegroup="P 1" unit_cell=conventional occupancy="_JSON {\"0\": {\"Al\": 1}, \"1\": {\"Al\": 1}, \"2\": {\"N\": 1}, \"3\": {\"N\": 1}}" energy=-29.574628829956055 free_energy=-29.574628829956055 stress="-0.023618090897798538 -0.014321241527795792 -0.011127945967018604 -0.014321241527795792 0.015029589645564556 -0.0028546692337840796 -0.011127945967018604 -0.0028546692337840796 -0.014440235681831837" pbc="T T T"
Al       1.53421961       0.88369269       2.53780582        0       1.55944055       0.36820881       1.55971048       0.29264489      -0.24000476      -0.91367704
Al      -0.00048007       1.82107764       4.98837342        1       1.01688524       0.86374328      -2.47525462       0.94369447       0.52251500       0.78486514
N        1.63583965       0.96584651       4.40663184        2      -0.31021859      -0.52489308       1.27117355      -1.15103650      -0.78907055       0.05687975
N       -0.01177519       1.75252280       1.90648729        3      -2.26610720      -0.70705904      -0.35562938      -0.08530285       0.50656027       0.07193220
4
Lattice="3.128588 0.0 0.0 -1.5642939988088433 2.709436998432005 0.0 0.0 0.0 5.016955" Properties=species:S:1:pos:R:3:spacegroup_kinds:I:1:momenta:R:3:forces:R:3 spacegroup="P 1" unit_cell=conventional occupancy="_JSON {\"0\": {\"Al\": 1}, \"1\": {\"Al\": 1}, \"2\": {\"N\": 1}, \"3\": {\"N\": 1}}" energy=-29.372068405151367 free_energy=-29.372068405151367 stress="-0.005629600491374731 -0.01871965080499649 0.015849443152546883 -0.01871965080499649 -0.0322728268802166 0.017212193459272385 0.015849443152546883 0.017212193459272385 -0.007298261858522892" pbc="T T T"
Al       1.57072834       0.88046441       2.56331977        0      -0.00039243      -0.37629486      -0.57844061      -1.34386396      -0.44065884      -1.50707555
Al       0.05055071       1.86456081       4.94968569        1       0.52727007       0.77034128       1.04960187      -0.49128801      -1.36434007       1.82584667
N        1.58204801       0.88176662       4.44992390        2      -0.27832235      -1.02263364      -0.55459301       0.15003458       1.16376305      -0.85894954
N       -0.12661084       1.75915454       1.88869865        3      -0.24855532       0.62858720       0.08343173       1.68511736       0.64123577       0.54017800
4
Lattice="3.128588 0.0 0.0 -1.5642939988088433 2.709436998432005 0.0 0.0 0.0 5.016955" Properties=species:S:1:pos:R:3:spacegroup_kinds:I:1:momenta:R:3:forces:R:3 spacegroup="P 1" unit_cell=conventional occupancy="_JSON {\"0\": {\"Al\": 1}, \"1\": {\"Al\": 1}, \"2\": {\"N\": 1}, \"3\": {\"N\": 1}}" energy=-29.596923828125 free_energy=-29.596923828125 stress="0.015976393595337868 -0.004506061784923077 0.006018670275807381 -0.004506061784923077 -0.025499284267425537 -0.0045970743522048 0.006018670275807381 -0.0045970743522048 -0.010014067403972149" pbc="T T T"
Al       1.53284806       0.86390066       2.51395077        0      -1.59464522      -0.16469663      -1.74991393      -0.27820715       0.89915782      -0.15420692
Al       0.06317841       1.83227865       5.00948380        1       0.38440051      -1.80666634       1.59449963      -0.58708131      -0.41271406       0.16725111
N        1.58572479       0.89623789       4.41422574        2       0.14193129       1.12964957      -0.09119160       0.25703847       0.38076425       0.00228210
N       -0.08152104       1.83862419       1.90381445        3       1.06831339       0.84171339       0.24660590       0.60825002      -0.86720806      -0.01532617
4
Lattice="3.128588 0.0 0.0 -1.5642939988088433 2.709436998432005 0.0 0.0 0.0 5.016955" Properties=species:S:1:pos:R:3:spacegroup_kinds:I:1:momenta:R:3:forces:R:3 spacegroup="P 1" unit_cell=conventional occupancy="_JSON {\"0\": {\"Al\": 1}, \"1\": {\"Al\": 1}, \"2\": {\"N\": 1}, \"3\": {\"N\": 1}}" energy=-29.462554931640625 free_energy=-29.462554931640625 stress="-0.0056971600279212 0.010849576443433762 -0.003906614147126675 0.010849576443433762 -0.019134070724248886 -0.01270324271172285 -0.003906614147126675 -0.01270324271172285 -0.011871465481817722" pbc="T T T"
Al       1.48347329       0.88264393       2.44527927        0      -0.30454509       1.01149489      -0.60004562       0.88393104       0.95768541       1.70776904
Al       0.06164412       1.77681258       5.07306072        1      -0.86715218      -0.75617409       0.43048905      -0.30080596       0.71655303      -1.72279918
N        1.61717707       0.94947188       4.40498427        2       0.38645827       0.04830102       0.18623338      -0.07234010      -0.67485929       0.48910743
N       -0.01486930       1.85626149       1.92266702        3       0.78523900      -0.30362178      -0.01667687      -0.51078498      -0.99937868      -0.47407776
4
Lattice="3.128588 0.0 0.0 -1.5642939988088433 2.709436998432005 0.0 0.0 0.0 5.016955" Properties=species:S:1:pos:R:3:spacegroup_kinds:I:1:momenta:R:3:forces:R:3 spacegroup="P 1" unit_cell=conventional occupancy="_JSON {\"0\": {\"Al\": 1}, \"1\": {\"Al\": 1}, \"2\": {\"N\": 1}, \"3\": {\"N\": 1}}" energy=-29.51875114440918 free_energy=-29.51875114440918 stress="-0.023370662704110146 0.006540094967931509 -0.016098184511065483 0.006540094967931509 0.006697511300444603 -0.0004824564093723893 -0.016098184511065483 -0.0004824564093723893 -0.022161126136779785" pbc="T T T"
Al       1.50607637       0.94974317       2.46463696        0       1.15921321       0.62635235       1.50689971       1.24247551      -0.60704482       1.15697277
Al       0.01335473       1.75088039       5.06242873        1      -0.91112023       0.14825303      -0.88962650       0.51474452       0.69610101      -1.43088961
N        1.62637953       0.90489622       4.42127859        2      -0.14223533      -0.64065114       0.21498384      -0.71771526      -0.51823747      -0.07984757
N        0.02538011       1.82158368       1.88963025        3      -0.10585764      -0.13395422      -0.83225708      -1.03950465       0.42918134       0.35376483
4
Lattice="3.128588 0.0 0.0 -1.5642939988088433 2.709436998432005 0.0 0.0 0.0 5.016955" Properties=species:S:1:pos:R:3:spacegroup_kinds:I:1:momenta:R:3:forces:R:3 spacegroup="P 1" unit_cell=conventional occupancy="_JSON {\"0\": {\"Al\": 1}, \"1\": {\"Al\": 1}, \"2\": {\"N\": 1}, \"3\": {\"N\": 1}}" energy=-29.605009078979492 free_energy=-29.605009078979492 stress="0.0015958471922203898 -0.006785968318581581 -0.0030952186789363623 -0.006785968318581581 0.0017806768883019686 0.0017242702888324857 -0.0030952186789363623 0.0017242702888324857 -0.023114057257771492" pbc="T T T"
Al       1.56693924       0.93861030       2.54470911        0       1.44875336      -0.98943777       1.48437442      -0.01659291      -0.29131675      -1.20301867
Al      -0.01304569       1.78057347       4.99752449        1       0.01689705       1.11024966      -1.70730048       0.38438398       0.02358420       0.50762707
N        1.58384202       0.87104969       4.42155575        2      -0.67927380      -0.02704946      -0.19037165      -0.39236593       0.15177776      -0.39792937
N        0.00122213       1.81989279       1.85992052        3      -0.78637657      -0.09376236       0.41329765       0.02457480       0.11595471       1.09332085
4
Lattice="3.128588 0.0 0.0 -1.5642939988088433 2.709436998432005 0.0 0.0 0.0 5.016955" Properties=species:S:1:pos:R:3:spacegroup_kinds:I:1:momenta:R:3:forces:R:3 spacegroup="P 1" unit_cell=conventional occupancy="_JSON {\"0\": {\"Al\": 1}, \"1\": {\"Al\": 1}, \"2\": {\"N\": 1}, \"3\": {\"N\": 1}}" energy=-29.47020721435547 free_energy=-29.47020721435547 stress="0.0032033275347203016 -0.017801502719521523 0.01183833833783865 -0.017801502719521523 -0.04134909436106682 0.007359948940575123 0.01183833833783865 0.007359948940575123 -0.005160273052752018" pbc="T T T"
Al       1.62755628       0.89950081       2.54516754        0       1.04970764      -0.99981864      -0.80202946      -1.41065180       0.15933394      -0.91778803
Al      -0.00757061       1.81703572       4.95606283        1      -0.03758000       0.11959792      -0.16512721      -0.26242563      -0.84351671       1.41445708
N        1.52756239       0.85151203       4.42065485        2      -0.42752174       0.29023113      -0.07965758       0.31765777       0.98894715      -0.00115347
N       -0.06966665       1.84442109       1.93994533        3      -0.58460587       0.58998964       1.04681425       1.35541987      -0.30476445      -0.49551582
4
Lattice="3.128588 0.0 0.0 -1.5642939988088433 2.709436998432005 0.0 0.0 0.0 5.016955" Properties=species:S:1:pos:R:3:spacegroup_kinds:I:1:momenta:R:3:forces:R:3 spacegroup="P 1" unit_cell=conventional occupancy="_JSON {\"0\": {\"Al\": 1}, \"1\": {\"Al\": 1}, \"2\": {\"N\": 1}, \"3\": {\"N\": 1}}" energy=-29.45298957824707 free_energy=-29.45298957824707 stress="-0.013225318863987923 -0.02375013381242752 0.007911465130746365 -0.02375013381242752 -0.04793183133006096 -0.007333411369472742 0.007911465130746365 -0.007333411369472742 0.028633033856749535" pbc="T T T"
Al       1.63184039       0.85684031       2.46693547        0      -0.97589040      -0.55899571      -1.34838455      -1.39009881       1.11026371       1.17303967
Al      -0.02377746       1.82170277       4.98999601        1      -0.28018762       0.45883486       1.28013581      -0.08532752       0.08283903       0.34697095
N        1.52792701       0.92957755       4.44479004        2       0.11446399       0.97873248       0.08012563       0.22036251      -0.17399204       0.05598739
N       -0.04718867       1.83921500       2.00086009        3       1.14161400      -0.87857160      -0.01187693       1.25506377      -1.01911068      -1.57599783
4
Lattice="3.128588 0.0 0.0 -1.5642939988088433 2.709436998432005 0.0 0.0 0.0 5.016955" Properties=species:S:1:pos:R:3:spacegroup_kinds:I:1:momenta:R:3:forces:R:3 spacegroup="P 1" unit_cell=conventional occupancy="_JSON {\"0\": {\"Al\": 1}, \"1\": {\"Al\": 1}, \"2\": {\"N\": 1}, \"3\": {\"N\": 1}}" energy=-29.536317825317383 free_energy=-29.536317825317383 stress="-0.01985749416053295 0.013828945346176624 -0.005717352498322725 0.013828945346176624 -0.003163803368806839 -0.0016710137715563178 -0.005717352498322725 -0.0016710137715563178 -0.006260589696466923" pbc="T T T"
Al       1.56291509       0.86348349       2.43836894        0      -1.44558785       0.38889122       0.34075018       0.67285961       0.11609337       1.45909572
Al      -0.01834140       1.83613132       5.05736572        1       0.19731508      -0.00921550       1.04742094       0.06595243       0.15003669      -1.19267321
N        1.54726692       0.95741150       4.47045640        2      -0.01024007       0.05684981       0.14844049       0.09761427      -0.44421020      -0.65174782
N        0.05576966       1.77068667       1.90062727        3       1.25851280      -0.43652549      -1.53661166      -0.83642644       0.17808016       0.38532555
4
Lattice="3.128588 0.0 0.0 -1.5642939988088433 2.709436998432005 0.0 0.0 0.0 5.016955" Properties=species:S:1:pos:R:3:spacegroup_kinds:I:1:momenta:R:3:forces:R:3 spacegroup="P 1" unit_cell=conventional occupancy="_JSON {\"0\": {\"Al\": 1}, \"1\": {\"Al\": 1}, \"2\": {\"N\": 1}, \"3\": {\"N\": 1}}" energy=-29.5310001373291 free_energy=-29.5310001373291 stress="-0.018294036388397217 0.01570759527385235 -0.011607720516622066 0.01570759527385235 0.00314806099049747 0.004605662077665329 -0.011607720516622066 0.004605662077665329 -0.017258919775485992" pbc="T T T"
Al       1.54701077       0.87273548       2.46070916        0       0.71855716      -0.11584325       0.49435450       1.07476807      -0.28505737       1.06925488
Al      -0.01761627       1.84389392       5.05391119        1       0.19346362       0.17720478      -0.69190250       0.23187684      -0.07941914      -1.16825199
N        1.56395350       0.94331118       4.45961399        2       0.32487497      -0.12409504      -0.51346210      -0.11547113      -0.20503265      -0.72920173
N        0.06831349       1.75176770       1.87546334        3      -1.23689579       0.06273357       0.71101006      -1.19117367       0.56950921       0.82819903
4
Lattice="3.128588 0.0 0.0 -1.5642939988088433 2.709436998432005 0.0 0.0 0.0 5.016955" Properties=species:S:1:pos:R:3:spacegroup_kinds:I:1:momenta:R:3:forces:R:3 spacegroup="P 1" unit_cell=conventional occupancy="_JSON {\"0\": {\"Al\": 1}, \"1\": {\"Al\": 1}, \"2\": {\"N\": 1}, \"3\": {\"N\": 1}}" energy=-29.61321449279785 free_energy=-29.61321449279785 stress="-0.008381769061088562 -0.0042766244150698185 0.00549280596897006 -0.0042766244150698185 -0.01393723115324974 0.0014804439852014184 0.00549280596897006 0.0014804439852014184 0.012475415132939816" pbc="T T T"
Al       1.57767909       0.87033381       2.48321567        0       0.42145855      -0.10086004       0.75449339      -0.50598633       0.14215344       0.64867663
Al       0.00878679       1.84488738       5.00616575        1       0.94842504       0.04829634      -0.67234625      -0.28191030      -0.37569785       0.05942813
N        1.54733739       0.91884308       4.41695255        2      -0.50233555      -0.06173792      -0.86681745       0.26756781       0.16352579       0.34766835
N       -0.02491942       1.77881444       1.96659668        3      -0.86754806       0.11430165       0.78467030       0.52032852       0.07001851      -1.05577302
4
Lattice="3.128588 0.0 0.0 -1.5642939988088433 2.709436998432005 0.0 0.0 0.0 5.016955" Properties=species:S:1:pos:R:3:spacegroup_kinds:I:1:momenta:R:3:forces:R:3 spacegroup="P 1" unit_cell=conventional occupancy="_JSON {\"0\": {\"Al\": 1}, \"1\": {\"Al\": 1}, \"2\": {\"N\": 1}, \"3\": {\"N\": 1}}" energy=-29.55784034729004 free_energy=-29.55784034729004 stress="-0.01636406220495701 -0.002947723725810647 0.012903822585940361 -0.002947723725810647 -0.0062078139744699 0.001537624979391694 0.012903822585940361 0.001537624979391694 -0.0027146474458277225" pbc="T T T"
Al       1.59068813       0.88023432       2.52274587        0      -0.41625607       0.17886989       0.33160735      -0.90884256      -0.14030899      -0.36868006
Al       0.01872290       1.83477374       4.97781990        1       0.14974005      -0.20763069      -0.17578503      -0.72829843      -0.10046457       0.72652638
N        1.52039172       0.92489996       4.39464369        2       0.19754335       0.25939939       0.47781846       0.72476029      -0.09604936       0.71574521
N       -0.04216862       1.77342028       1.96745704        3       0.06897264      -0.23063855      -0.63364078       0.91238070       0.33682281      -1.07359123
4
Lattice="3.128588 0.0 0.0 -1.5642939988088433 2.709436998432005 0.0 0.0 0.0 5.016955" Properties=species:S:1:pos:R:3:spacegroup_kinds:I:1:momenta:R:3:forces:R:3 spacegroup="P 1" unit_cell=conventional occupancy="_JSON {\"0\": {\"Al\": 1}, \"1\": {\"Al\": 1}, \"2\": {\"N\": 1}, \"3\": {\"N\": 1}}" energy=-29.621110916137695 free_energy=-29.621110916137695 stress="-0.021500617265701294 0.005276316311210394 -0.0032674723770469427 0.005276316311210394 0.010657900013029575 0.0019249902106821537 -0.0032674723770469427 0.0019249902106821537 -0.001589974737726152" pbc="T T T"
Al       1.54767651       0.89587762       2.50832857        0      -0.85809935       0.46896474      -1.00003083       0.39160290      -0.39029211      -0.15032314
Al       0.00665801       1.82067513       5.00342493        1      -0.72966921      -0.11082563       1.46536774      -0.00950035       0.22696877       0.34862655
N        1.57185929       0.94293300       4.45440724        2       0.62349827      -0.37686565       0.64593270      -0.01969667      -0.43335170      -0.83889848
N        0.01256033       1.75229426       1.88600535        3       0.96427025       0.01872658      -1.11126959      -0.36240596       0.59667492       0.64059496
4
Lattice="3.128588 0.0 0.0 -1.5642939988088433 2.709436998432005 0.0 0.0 0.0 5.016955" Properties=species:S:1:pos:R:3:spacegroup_kinds:I:1:momenta:R:3:forces:R:3 spacegroup="P 1" unit_cell=conventional occupancy="_JSON {\"0\": {\"Al\": 1}, \"1\": {\"Al\": 1}, \"2\": {\"N\": 1}, \"3\": {\"N\": 1}}" energy=-29.520856857299805 free_energy=-29.520856857299805 stress="-0.014047506265342236 0.011820961721241474 -0.014255538582801819 0.011820961721241474 -0.0056147463619709015 0.009361475706100464 -0.014255538582801819 0.009361475706100464 -0.019571028649806976" pbc="T T T"
Al       1.52999430       0.91403916       2.46474569        0       0.09545066      -0.23101210      -1.18071415       1.21875060      -0.63577032       0.99289954
Al      -0.00890654       1.82180735       5.05208965        1       0.31216926      -0.10747395       0.45537804       0.39472789      -0.38378602      -1.12710154
N        1.59437709       0.88605551       4.45928990        2      -0.04799023      -0.53350336      -0.20523328      -0.40810546       0.35579050      -0.79021794
N        0.05384447       1.77207219       1.87145000        3      -0.35962970       0.87198945       0.93056947      -1.20537305       0.66376549       0.92442024
4
Lattice="3.128588 0.0 0.0 -1.5642939988088433 2.709436998432005 0.0 0.0 0.0 5.016955" Properties=species:S:1:pos:R:3:spacegroup_kinds:I:1:momenta:R:3:forces:R:3 spacegroup="P 1" unit_cell=conventional occupancy="_JSON {\"0\": {\"Al\": 1}, \"1\": {\"Al\": 1}, \"2\": {\"N\": 1}, \"3\": {\"N\": 1}}" energy=-29.61878776550293 free_energy=-29.61878776550293 stress="0.010117778554558754 -0.0018218940822407603 -0.0018729961011558771 -0.0018218940822407603 -0.024783063679933548 0.004591074306517839 -0.0018729961011558771 0.004591074306517839 2.6450290533830412e-05" pbc="T T T"
Al       1.53818033       0.90928019       2.47247627        0       0.23228526      -0.27447299       1.41733302       0.21200953       0.18702200       0.85530829
Al       0.01802692       1.81430747       5.03506518        1       0.60360820      -0.42930262      -1.11140772       0.03760082      -0.69444025      -0.55142492
N        1.59518011       0.85128045       4.42414647        2       0.09084613       0.02420728      -0.77345500      -0.19470176       0.84070438       0.01228023
N       -0.01452981       1.83034431       1.92467359        3      -0.92673964       0.67956834       0.46752976      -0.05490867      -0.33328605      -0.31616312
4
Lattice="3.128588 0.0 0.0 -1.5642939988088433 2.709436998432005 0.0 0.0 0.0 5.016955" Properties=species:S:1:pos:R:3:spacegroup_kinds:I:1:momenta:R:3:forces:R:3 spacegroup="P 1" unit_cell=conventional occupancy="_JSON {\"0\": {\"Al\": 1}, \"1\": {\"Al\": 1}, \"2\": {\"N\": 1}, \"3\": {\"N\": 1}}" energy=-29.623741149902344 free_energy=-29.623741149902344 stress="0.004300463479012251 -0.008672664873301983 0.0028819350991398096 -0.008672664873301983 -0.006943548563867807 -0.004434396978467703 0.0028819350991398096 -0.004434396978467703 -0.014838934876024723" pbc="T T T"
Al       1.54321203       0.89379623       2.53645980        0      -0.00705437      -0.41529174       0.79445009      -0.25249940       0.39302820      -0.87834287
Al       0.03580899       1.79893954       4.98957808        1       0.09337903      -0.29525185      -0.61191977      -0.16600826       0.14057940       0.62745374
N        1.59619755       0.90645098       4.40111847        2      -0.02189801       1.09350724       0.27120826      -0.08900155      -0.09593557       0.34911567
N       -0.05911258       1.83464204       1.91219265        3      -0.06442667      -0.38296364      -0.45373855       0.50750911      -0.43767196      -0.09822667
