4
Lattice="3.128588 0.0 0.0 -1.5642939988088433 2.709436998432005 0.0 0.0 0.0 5.016955" Properties=species:S:1:pos:R:3:spacegroup_kinds:I:1:forces:R:3 spacegroup="P 1" unit_cell=conventional occupancy="_JSON {\"0\": {\"Al\": 1}, \"1\": {\"Al\": 1}, \"2\": {\"N\": 1}, \"3\": {\"N\": 1}}" energy=-29.673717498779297 free_energy=-29.673717498779297 stress="-0.002225306583568454 -1.332777628704207e-06 -2.3707572793796317e-08 -1.332777628704207e-06 -0.0022273415233939886 -4.127486263882929e-08 -2.3707572793796317e-08 -4.127486263882929e-08 -0.005453640129417181" pbc="T T T"
Al       1.56429556       0.90314476       2.50490041        0      -0.00003468       0.00001998       0.00553178
Al      -0.00000156       1.80629224       5.01337791        1       0.00003450      -0.00001884       0.00552464
N        1.56429556       0.90314476       4.41849749        2      -0.00003655       0.00001928      -0.00553089
N       -0.00000156       1.80629224       1.91001999        3       0.00003671      -0.00002052      -0.00552545
