4
Lattice="3.128588 0.0 0.0 -1.5642939988088433 2.709436998432005 0.0 0.0 0.0 5.016955" Properties=species:S:1:pos:R:3:spacegroup_kinds:I:1:forces:R:3 spacegroup="P 1" unit_cell=conventional occupancy="_JSON {\"0\": {\"Al\": 1}, \"1\": {\"Al\": 1}, \"2\": {\"N\": 1}, \"3\": {\"N\": 1}}" energy=-29.673715591430664 free_energy=-29.673715591430664 stress="-0.0022254199720919132 -1.3523600728149177e-06 2.8815071217991317e-08 -1.3523600728149177e-06 -0.0022275319788604975 -2.3187952891134955e-08 2.8815071217991317e-08 -2.3187952891134955e-08 -0.005453736521303654" pbc="T T T"
Al       1.56429556       0.90314476       2.50490041        0      -0.00003540       0.00002010       0.00553145
Al      -0.00000156       1.80629224       5.01337791        1       0.00003368      -0.00002041       0.00552441
N        1.56429556       0.90314476       4.41849749        2      -0.00003546       0.00002167      -0.00553003
N       -0.00000156       1.80629224       1.91001999        3       0.00003718      -0.00002164      -0.00552597
