4
Lattice="3.128588 0.0 0.0 -1.5642939988088433 2.709436998432005 0.0 0.0 0.0 5.016955" Properties=species:S:1:pos:R:3:spacegroup_kinds:I:1:momenta:R:3:forces:R:3 spacegroup="P 1" unit_cell=conventional occupancy="_JSON {\"0\": {\"Al\": 1}, \"1\": {\"Al\": 1}, \"2\": {\"N\": 1}, \"3\": {\"N\": 1}}" energy=-29.62374496459961 free_energy=-29.62374496459961 stress="0.004300489090383053 -0.00867258757352829 0.002882064087316394 -0.00867258757352829 -0.006943817716091871 -0.0044348593801259995 0.002882064087316394 -0.0044348593801259995 -0.014838590286672115" pbc="T T T"
Al       1.54321202       0.89379622       2.53645984        0      -0.00705474      -0.41529171       0.79445105      -0.25249889       0.39303076      -0.87833905
Al       0.03580901       1.79893953       4.98957806        1       0.09337945      -0.29525132      -0.61192063      -0.16601291       0.14058337       0.62744677
N        1.59619757       0.90645096       4.40111854        2      -0.02189840       1.09350653       0.27120876      -0.08899659      -0.09593990       0.34910524
N       -0.05911255       1.83464210       1.91219264        3      -0.06442629      -0.38296349      -0.45373908       0.50750834      -0.43767413      -0.09821295
