4
Lattice="3.128588 0.0 0.0 -1.5642939988088433 2.709436998432005 0.0 0.0 0.0 5.016955" Properties=species:S:1:pos:R:3:spacegroup_kinds:I:1:momenta:R:3:forces:R:3 spacegroup="P 1" unit_cell=conventional occupancy="_JSON {\"0\": {\"Al\": 1}, \"1\": {\"Al\": 1}, \"2\": {\"N\": 1}, \"3\": {\"N\": 1}}" energy=-29.673717498779297 free_energy=-29.673717498779297 stress="-0.0022253922652453184 -1.4683175777463475e-06 -4.189045910152345e-08 -1.4683175777463475e-06 -0.002227436751127243 -2.921384556486828e-08 -4.189045910152345e-08 -2.921384556486828e-08 -0.005453686695545912" pbc="T T T"
Al       1.56429556       0.90314476       2.50490041        0       0.68448204       0.53670047       0.91071479      -0.00003460       0.00002004       0.00553149
Al      -0.00000156       1.80629224       5.01337791        1       0.31075784       0.39520501      -1.87833745       0.00003497      -0.00001978       0.00552417
N        1.56429556       0.90314476       4.41849749        2      -0.23293981      -0.79739853      -0.40745139      -0.00003668       0.00002015      -0.00553107
N       -0.00000156       1.80629224       1.91001999        3      -0.76230006      -0.13450696       1.37507406       0.00003627      -0.00002057      -0.00552443
4
Lattice="3.128588 0.0 0.0 -1.5642939988088433 2.709436998432005 0.0 0.0 0.0 5.016955" Properties=species:S:1:pos:R:3:spacegroup_kinds:I:1:momenta:R:3:forces:R:3 spacegroup="P 1" unit_cell=conventional occupancy="_JSON {\"0\": {\"Al\": 1}, \"1\": {\"Al\": 1}, \"2\": {\"N\": 1}, \"3\": {\"N\": 1}}" energy=-29.43359375 free_energy=-29.43359375 stress="-0.013773396611213684 -0.016446396708488464 0.01294885203242302 -0.016446396708488464 -0.023968705907464027 0.009969749487936497 0.01294885203242302 0.009969749487936497 -0.012059314176440239" pbc="T T T"
Al       1.60246141       0.92231284       2.54150849        0       0.57498204      -0.13491975       1.02882479      -1.31301355      -0.49033433      -0.87831235
Al       0.00328789       1.81111139       4.94718775        1      -0.44725809       0.00118055      -1.07867296      -0.30154330      -0.59423167       1.18011737
N        1.53678587       0.85870779       4.38099594        2       0.14052033      -0.46066735       0.20203866       0.28490973       0.67984402       1.25553751
N       -0.05228245       1.80432670       2.00436659        3      -0.26824432       0.59440652      -0.15219047       1.32964683       0.40472171      -1.55734265
4
Lattice="3.128588 0.0 0.0 -1.5642939988088433 2.709436998432005 0.0 0.0 0.0 5.016955" Properties=species:S:1:pos:R:3:spacegroup_kinds:I:1:momenta:R:3:forces:R:3 spacegroup="P 1" unit_cell=conventional occupancy="_JSON {\"0\": {\"Al\": 1}, \"1\": {\"Al\": 1}, \"2\": {\"N\": 1}, \"3\": {\"N\": 1}}" energy=-29.567256927490234 free_energy=-29.567256927490234 stress="0.012916039675474167 0.0017024647677317262 0.0035794214345514774 0.0017024647677317262 -0.025856902822852135 -0.005369170568883419 0.0035794214345514774 -0.005369170568883419 -0.011435147374868393" pbc="T T T"
Al       1.59598185       0.90138486       2.55101264        0      -0.85004007      -0.64755180      -0.41676323      -0.33522588       0.74370492      -1.26921153
Al      -0.01311800       1.79082858       4.96769659        1      -0.24557059      -0.74327787       1.65595807      -0.18280278      -0.17026889       1.21499455
N        1.52960409       0.86779350       4.41996341        2       0.16413092       0.60763581       0.63654564       0.31887716       0.39321548      -0.09056816
N       -0.00060092       1.87475188       1.90756519        3       0.93147969       0.78319386      -1.87574039       0.19915164      -0.96665132       0.14478518
4
Lattice="3.128588 0.0 0.0 -1.5642939988088433 2.709436998432005 0.0 0.0 0.0 5.016955" Properties=species:S:1:pos:R:3:spacegroup_kinds:I:1:momenta:R:3:forces:R:3 spacegroup="P 1" unit_cell=conventional occupancy="_JSON {\"0\": {\"Al\": 1}, \"1\": {\"Al\": 1}, \"2\": {\"N\": 1}, \"3\": {\"N\": 1}}" energy=-29.406274795532227 free_energy=-29.406274795532227 stress="0.010688919574022293 0.01649804227054119 -0.008164123632013798 0.01649804227054119 -0.009423215873539448 -0.015553872101008892 -0.008164123632013798 -0.015553872101008892 -0.061254095286130905" pbc="T T T"
Al       1.53423927       0.87298461       2.51007451        0      -1.60925363       0.09619181      -1.03262318       0.74608958       1.00298476       0.03482398
Al      -0.01349005       1.78470222       5.05709166        1       0.21561235      -0.04339789       1.72443305       0.02271774       0.40732667      -1.66437018
N        1.55208975       0.92225131       4.42203508        2       0.38659384       0.63935801      -0.93002922       0.04495243      -0.39009446      -0.56986082
N        0.09667400       1.88681818       1.81230439        3       1.00704742      -0.69215193       0.23821943      -0.81375980      -1.02021730       2.19940686
4
Lattice="3.128588 0.0 0.0 -1.5642939988088433 2.709436998432005 0.0 0.0 0.0 5.016955" Properties=species:S:1:pos:R:3:spacegroup_kinds:I:1:momenta:R:3:forces:R:3 spacegroup="P 1" unit_cell=conventional occupancy="_JSON {\"0\": {\"Al\": 1}, \"1\": {\"Al\": 1}, \"2\": {\"N\": 1}, \"3\": {\"N\": 1}}" energy=-29.201902389526367 free_energy=-29.201902389526367 stress="-0.026440806686878204 0.03815522789955139 -0.031382568180561066 0.03815522789955139 -0.004877529107034206 0.0015437129186466336 -0.031382568180561066 0.0015437129186466336 -0.05181972682476044" pbc="T T T"
Al       1.49382403       0.87740192       2.48150487        0      -0.08661607      -0.02748807       0.25595554       2.48428154      -0.46186411       1.22611451
Al      -0.02076737       1.79337851       5.08843298        1       0.00716754       0.60209042      -1.27068278       0.64723265       0.57433534      -2.36003971
N        1.60157222       0.96971683       4.33361323        2       0.49437249       0.53651047      -0.17473320      -0.53882492      -0.70145261       1.74609029
N        0.13924907       1.81421456       1.89535163        3      -0.41492394      -1.11111285       1.18946051      -2.59268904       0.58898163      -0.61216569
4
Lattice="3.128588 0.0 0.0 -1.5642939988088433 2.709436998432005 0.0 0.0 0.0 5.016955" Properties=species:S:1:pos:R:3:spacegroup_kinds:I:1:momenta:R:3:forces:R:3 spacegroup="P 1" unit_cell=conventional occupancy="_JSON {\"0\": {\"Al\": 1}, \"1\": {\"Al\": 1}, \"2\": {\"N\": 1}, \"3\": {\"N\": 1}}" energy=-29.574626922607422 free_energy=-29.574626922607422 stress="-0.023618046194314957 -0.014321370050311089 -0.011127946898341179 -0.014321370050311089 0.015029879286885262 -0.0028546431567519903 -0.011127946898341179 -0.0028546431567519903 -0.014440372586250305" pbc="T T T"
Al       1.53421963       0.88369269       2.53780581        0       1.55944028       0.36820901       1.55971068       0.29264301      -0.24000391      -0.91367775
Al      -0.00048008       1.82107763       4.98837344        1       1.01688565       0.86374328      -2.47525523       0.94369626       0.52251613       0.78486544
N        1.63583965       0.96584649       4.40663186        2      -0.31021901      -0.52489318       1.27117332      -1.15103912      -0.78907228       0.05687820
N       -0.01177521       1.75252283       1.90648729        3      -2.26610693      -0.70705908      -0.35562873      -0.08530026       0.50656009       0.07193388
4
Lattice="3.128588 0.0 0.0 -1.5642939988088433 2.709436998432005 0.0 0.0 0.0 5.016955" Properties=species:S:1:pos:R:3:spacegroup_kinds:I:1:momenta:R:3:forces:R:3 spacegroup="P 1" unit_cell=conventional occupancy="_JSON {\"0\": {\"Al\": 1}, \"1\": {\"Al\": 1}, \"2\": {\"N\": 1}, \"3\": {\"N\": 1}}" energy=-29.3720703125 free_energy=-29.3720703125 stress="-0.005629510618746281 -0.01871945522725582 0.015849458053708076 -0.01871945522725582 -0.032273050397634506 0.017212282866239548 0.015849458053708076 0.017212282866239548 -0.0072982111014425755" pbc="T T T"
Al       1.57072835       0.88046443       2.56331977        0      -0.00039249      -0.37629493      -0.57844034      -1.34386408      -0.44065812      -1.50707817
Al       0.05055070       1.86456080       4.94968568        1       0.52727003       0.77034171       1.04960143      -0.49128699      -1.36433899       1.82584703
N        1.58204800       0.88176658       4.44992389        2      -0.27832234      -1.02263399      -0.55459303       0.15003420       1.16376305      -0.85894734
N       -0.12661084       1.75915455       1.88869872        3      -0.24855522       0.62858726       0.08343198       1.68511677       0.64123416       0.54017806
4
Lattice="3.128588 0.0 0.0 -1.5642939988088433 2.709436998432005 0.0 0.0 0.0 5.016955" Properties=species:S:1:pos:R:3:spacegroup_kinds:I:1:momenta:R:3:forces:R:3 spacegroup="P 1" unit_cell=conventional occupancy="_JSON {\"0\": {\"Al\": 1}, \"1\": {\"Al\": 1}, \"2\": {\"N\": 1}, \"3\": {\"N\": 1}}" energy=-29.596921920776367 free_energy=-29.596921920776367 stress="0.01597633585333824 -0.004505943041294813 0.006018667481839657 -0.004505943041294813 -0.025499634444713593 -0.004597119987010956 0.006018667481839657 -0.004597119987010956 -0.010013815946877003" pbc="T T T"
Al       1.53284807       0.86390067       2.51395078        0      -1.59464536      -0.16469703      -1.74991392      -0.27820623       0.89915848      -0.15420607
Al       0.06317841       1.83227866       5.00948378        1       0.38440037      -1.80666617       1.59450050      -0.58708489      -0.41271722       0.16725177
N        1.58572476       0.89623784       4.41422576        2       0.14193145       1.12964963      -0.09119118       0.25704187       0.38076752       0.00228094
N       -0.08152104       1.83862420       1.90381449        3       1.06831353       0.84171356       0.24660466       0.60824919      -0.86720872      -0.01532658
4
Lattice="3.128588 0.0 0.0 -1.5642939988088433 2.709436998432005 0.0 0.0 0.0 5.016955" Properties=species:S:1:pos:R:3:spacegroup_kinds:I:1:momenta:R:3:forces:R:3 spacegroup="P 1" unit_cell=conventional occupancy="_JSON {\"0\": {\"Al\": 1}, \"1\": {\"Al\": 1}, \"2\": {\"N\": 1}, \"3\": {\"N\": 1}}" energy=-29.462553024291992 free_energy=-29.462553024291992 stress="-0.005697115324437618 0.010849548503756523 -0.003906614147126675 0.010849548503756523 -0.019133759662508965 -0.012703225016593933 -0.003906614147126675 -0.012703225016593933 -0.011871369555592537" pbc="T T T"
Al       1.48347330       0.88264394       2.44527927        0      -0.30454489       1.01149453      -0.60004558       0.88393134       0.95768571       1.70776987
Al       0.06164410       1.77681259       5.07306075        1      -0.86715252      -0.75617408       0.43048985      -0.30080786       0.71655548      -1.72279906
N        1.61717707       0.94947184       4.40498431        2       0.38645845       0.04830132       0.18623338      -0.07233765      -0.67486221       0.48910716
N       -0.01486929       1.85626150       1.92266698        3       0.78523897      -0.30362176      -0.01667759      -0.51078600      -0.99937904      -0.47407788
4
Lattice="3.128588 0.0 0.0 -1.5642939988088433 2.709436998432005 0.0 0.0 0.0 5.016955" Properties=species:S:1:pos:R:3:spacegroup_kinds:I:1:momenta:R:3:forces:R:3 spacegroup="P 1" unit_cell=conventional occupancy="_JSON {\"0\": {\"Al\": 1}, \"1\": {\"Al\": 1}, \"2\": {\"N\": 1}, \"3\": {\"N\": 1}}" energy=-29.51875114440918 free_energy=-29.51875114440918 stress="-0.023370610550045967 0.00654006889089942 -0.016098175197839737 0.00654006889089942 0.006697435863316059 -0.0004823814088013023 -0.016098175197839737 -0.0004823814088013023 -0.022161273285746574" pbc="T T T"
Al       1.50607639       0.94974317       2.46463697        0       1.15921334       0.62635237       1.50690014       1.24247515      -0.60704505       1.15697312
Al       0.01335471       1.75088040       5.06242875        1      -0.91112057       0.14825271      -0.88962710       0.51474339       0.69610488      -1.43088949
N        1.62637954       0.90489622       4.42127860        2      -0.14223494      -0.64065041       0.21498322      -0.71771532      -0.51824087      -0.07984866
N        0.02538011       1.82158366       1.88963021        3      -0.10585778      -0.13395467      -0.83225620      -1.03950334       0.42918122       0.35376483
4
Lattice="3.128588 0.0 0.0 -1.5642939988088433 2.709436998432005 0.0 0.0 0.0 5.016955" Properties=species:S:1:pos:R:3:spacegroup_kinds:I:1:momenta:R:3:forces:R:3 spacegroup="P 1" unit_cell=conventional occupancy="_JSON {\"0\": {\"Al\": 1}, \"1\": {\"Al\": 1}, \"2\": {\"N\": 1}, \"3\": {\"N\": 1}}" energy=-29.60500717163086 free_energy=-29.60500717163086 stress="0.0015957561554387212 -0.006785966921597719 -0.0030954694375395775 -0.006785966921597719 0.0017802889924496412 0.001724331290461123 -0.0030954694375395775 0.001724331290461123 -0.023113718256354332" pbc="T T T"
Al       1.56693925       0.93861030       2.54470911        0       1.44875318      -0.98943795       1.48437374      -0.01659418      -0.29131523      -1.20300603
Al      -0.01304572       1.78057347       4.99752451        1       0.01689744       1.11024987      -1.70730041       0.38438922       0.02358058       0.50760430
N        1.58384204       0.87104972       4.42155572        2      -0.67927410      -0.02704957      -0.19037191      -0.39237136       0.15178047      -0.39792502
N        0.00122215       1.81989275       1.85992057        3      -0.78637647      -0.09376232       0.41329859       0.02457632       0.11595420       1.09332657
4
Lattice="3.128588 0.0 0.0 -1.5642939988088433 2.709436998432005 0.0 0.0 0.0 5.016955" Properties=species:S:1:pos:R:3:spacegroup_kinds:I:1:momenta:R:3:forces:R:3 spacegroup="P 1" unit_cell=conventional occupancy="_JSON {\"0\": {\"Al\": 1}, \"1\": {\"Al\": 1}, \"2\": {\"N\": 1}, \"3\": {\"N\": 1}}" energy=-29.470205307006836 free_energy=-29.470205307006836 stress="0.0032032376620918512 -0.017801452428102493 0.011838356032967567 -0.017801452428102493 -0.0413491316139698 0.007359824609011412 0.011838356032967567 0.007359824609011412 -0.005160211585462093" pbc="T T T"
Al       1.62755627       0.89950079       2.54516752        0       1.04970734      -0.99981878      -0.80202945      -1.41065383       0.15933193      -0.91778803
Al      -0.00757060       1.81703574       4.95606283        1      -0.03757955       0.11959875      -0.16512779      -0.26242718      -0.84351379       1.41445780
N        1.52756235       0.85151204       4.42065484        2      -0.42752192       0.29023021      -0.07965689       0.31765845       0.98894477      -0.00115341
N       -0.06966661       1.84442108       1.93994542        3      -0.58460582       0.58998982       1.04681415       1.35542274      -0.30476272      -0.49551621
4
Lattice="3.128588 0.0 0.0 -1.5642939988088433 2.709436998432005 0.0 0.0 0.0 5.016955" Properties=species:S:1:pos:R:3:spacegroup_kinds:I:1:momenta:R:3:forces:R:3 spacegroup="P 1" unit_cell=conventional occupancy="_JSON {\"0\": {\"Al\": 1}, \"1\": {\"Al\": 1}, \"2\": {\"N\": 1}, \"3\": {\"N\": 1}}" energy=-29.452987670898438 free_energy=-29.452987670898438 stress="-0.013224788941442966 -0.023750105872750282 0.007911496795713902 -0.023750105872750282 -0.04793189465999603 -0.007333365269005299 0.007911496795713902 -0.007333365269005299 0.028632791712880135" pbc="T T T"
Al       1.63184038       0.85684028       2.46693547        0      -0.97589052      -0.55899574      -1.34838394      -1.39010143       1.11026227       1.17304146
Al      -0.02377745       1.82170282       4.98999599        1      -0.28018777       0.45883497       1.28013579      -0.08532801       0.08283693       0.34697637
N        1.52792698       0.92957750       4.44479008        2       0.11446447       0.97873260       0.08012603       0.22036354      -0.17398880       0.05598745
N       -0.04718865       1.83921500       2.00086013        3       1.14161383      -0.87857184      -0.01187791       1.25506592      -1.01911044      -1.57600522
4
Lattice="3.128588 0.0 0.0 -1.5642939988088433 2.709436998432005 0.0 0.0 0.0 5.016955" Properties=species:S:1:pos:R:3:spacegroup_kinds:I:1:momenta:R:3:forces:R:3 spacegroup="P 1" unit_cell=conventional occupancy="_JSON {\"0\": {\"Al\": 1}, \"1\": {\"Al\": 1}, \"2\": {\"N\": 1}, \"3\": {\"N\": 1}}" energy=-29.53631591796875 free_energy=-29.53631591796875 stress="-0.019857577979564667 0.01382905151695013 -0.005717358086258173 0.01382905151695013 -0.0031639239750802517 -0.0016709989868104458 -0.005717358086258173 -0.0016709989868104458 -0.006260578520596027" pbc="T T T"
Al       1.56291508       0.86348346       2.43836895        0      -1.44558756       0.38889101       0.34074974       0.67285955       0.11609363       1.45909595
Al      -0.01834141       1.83613137       5.05736572        1       0.19731514      -0.00921555       1.04742169       0.06595219       0.15003598      -1.19267488
N        1.54726695       0.95741149       4.47045645        2      -0.01023989       0.05685045       0.14844007       0.09761406      -0.44420892      -0.65174758
N        0.05576966       1.77068663       1.90062725        3       1.25851232      -0.43652588      -1.53661156      -0.83642578       0.17807928       0.38532609
4
Lattice="3.128588 0.0 0.0 -1.5642939988088433 2.709436998432005 0.0 0.0 0.0 5.016955" Properties=species:S:1:pos:R:3:spacegroup_kinds:I:1:momenta:R:3:forces:R:3 spacegroup="P 1" unit_cell=conventional occupancy="_JSON {\"0\": {\"Al\": 1}, \"1\": {\"Al\": 1}, \"2\": {\"N\": 1}, \"3\": {\"N\": 1}}" energy=-29.5310001373291 free_energy=-29.5310001373291 stress="-0.01829385757446289 0.015707626938819885 -0.011607742868363857 0.015707626938819885 0.0031482165213674307 0.004605662077665329 -0.011607742868363857 0.004605662077665329 -0.0172588974237442" pbc="T T T"
Al       1.54701077       0.87273543       2.46070915        0       0.71855756      -0.11584355       0.49435424       1.07476902      -0.28505763       1.06925523
Al      -0.01761627       1.84389395       5.05391120        1       0.19346384       0.17720443      -0.69190257       0.23187664      -0.07941876      -1.16825235
N        1.56395352       0.94331124       4.45961400        2       0.32487475      -0.12409434      -0.51346231      -0.11547102      -0.20503324      -0.72920215
N        0.06831345       1.75176765       1.87546338        3      -1.23689614       0.06273355       0.71101067      -1.19117463       0.56950957       0.82819903
4
Lattice="3.128588 0.0 0.0 -1.5642939988088433 2.709436998432005 0.0 0.0 0.0 5.016955" Properties=species:S:1:pos:R:3:spacegroup_kinds:I:1:momenta:R:3:forces:R:3 spacegroup="P 1" unit_cell=conventional occupancy="_JSON {\"0\": {\"Al\": 1}, \"1\": {\"Al\": 1}, \"2\": {\"N\": 1}, \"3\": {\"N\": 1}}" energy=-29.61321258544922 free_energy=-29.61321258544922 stress="-0.008381753228604794 -0.004276718944311142 0.005492944736033678 -0.004276718944311142 -0.013937045820057392 0.0014804467791691422 0.005492944736033678 0.0014804467791691422 0.012475389987230301" pbc="T T T"
Al       1.57767910       0.87033376       2.48321566        0       0.42145799      -0.10086021       0.75449407      -0.50599462       0.14215341       0.64868510
Al       0.00878681       1.84488741       5.00616576        1       0.94842525       0.04829681      -0.67234703      -0.28190929      -0.37569779       0.05942465
N        1.54733739       0.91884314       4.41695259        2      -0.50233587      -0.06173862      -0.86681658       0.26756686       0.16352500       0.34766740
N       -0.02491945       1.77881440       1.96659673        3      -0.86754736       0.11430209       0.78466965       0.52033699       0.07001951      -1.05577695
4
Lattice="3.128588 0.0 0.0 -1.5642939988088433 2.709436998432005 0.0 0.0 0.0 5.016955" Properties=species:S:1:pos:R:3:spacegroup_kinds:I:1:momenta:R:3:forces:R:3 spacegroup="P 1" unit_cell=conventional occupancy="_JSON {\"0\": {\"Al\": 1}, \"1\": {\"Al\": 1}, \"2\": {\"N\": 1}, \"3\": {\"N\": 1}}" energy=-29.55784034729004 free_energy=-29.55784034729004 stress="-0.01636364497244358 -0.002947823377326131 0.012903889641165733 -0.002947823377326131 -0.006207580678164959 0.0015377572271972895 0.012903889641165733 0.0015377572271972895 -0.0027147987857460976" pbc="T T T"
Al       1.59068811       0.88023426       2.52274591        0      -0.41625631       0.17887041       0.33160879      -0.90884387      -0.14031045      -0.36868179
Al       0.01872291       1.83477379       4.97781988        1       0.14973988      -0.20763045      -0.17578535      -0.72829747      -0.10046282       0.72653043
N        1.52039170       0.92489997       4.39464376        2       0.19754344       0.25939887       0.47781847       0.72475934      -0.09605101       0.71574295
N       -0.04216858       1.77342028       1.96745702        3       0.06897301      -0.23063877      -0.63364178       0.91238195       0.33682418      -1.07359171
4
Lattice="3.128588 0.0 0.0 -1.5642939988088433 2.709436998432005 0.0 0.0 0.0 5.016955" Properties=species:S:1:pos:R:3:spacegroup_kinds:I:1:momenta:R:3:forces:R:3 spacegroup="P 1" unit_cell=conventional occupancy="_JSON {\"0\": {\"Al\": 1}, \"1\": {\"Al\": 1}, \"2\": {\"N\": 1}, \"3\": {\"N\": 1}}" energy=-29.621112823486328 free_energy=-29.621112823486328 stress="-0.021500732749700546 0.005276312120258808 -0.003267416963353753 0.005276312120258808 0.010657597333192825 0.0019248760072514415 -0.003267416963353753 0.0019248760072514415 -0.0015898093115538359" pbc="T T T"
Al       1.54767649       0.89587761       2.50832861        0      -0.85809891       0.46896570      -1.00003157       0.39160436      -0.39028907      -0.15032631
Al       0.00665802       1.82067518       5.00342495        1      -0.72966955      -0.11082610       1.46536872      -0.00949828       0.22696978       0.34863144
N        1.57185929       0.94293298       4.45440726        2       0.62349869      -0.37686563       0.64593188      -0.01969958      -0.43335247      -0.83890080
N        0.01256035       1.75229420       1.88600532        3       0.96426980       0.01872609      -1.11126892      -0.36240643       0.59667188       0.64059544
4
Lattice="3.128588 0.0 0.0 -1.5642939988088433 2.709436998432005 0.0 0.0 0.0 5.016955" Properties=species:S:1:pos:R:3:spacegroup_kinds:I:1:momenta:R:3:forces:R:3 spacegroup="P 1" unit_cell=conventional occupancy="_JSON {\"0\": {\"Al\": 1}, \"1\": {\"Al\": 1}, \"2\": {\"N\": 1}, \"3\": {\"N\": 1}}" energy=-29.520856857299805 free_energy=-29.520856857299805 stress="-0.014047122560441494 0.011820933781564236 -0.014255555346608162 0.011820933781564236 -0.005614529363811016 0.009361481294035912 -0.014255555346608162 0.009361481294035912 -0.019571051001548767" pbc="T T T"
Al       1.52999432       0.91403917       2.46474570        0       0.09545144      -0.23101218      -1.18071434       1.21874833      -0.63577247       0.99289870
Al      -0.00890653       1.82180735       5.05208970        1       0.31216896      -0.10747484       0.45537771       0.39472476      -0.38378358      -1.12710238
N        1.59437710       0.88605553       4.45928987        2      -0.04799002      -0.53350301      -0.20523361      -0.40810117       0.35579082      -0.79021585
N        0.05384444       1.77207216       1.87145003        3      -0.35963035       0.87199006       0.93057038      -1.20537174       0.66376543       0.92441928
4
Lattice="3.128588 0.0 0.0 -1.5642939988088433 2.709436998432005 0.0 0.0 0.0 5.016955" Properties=species:S:1:pos:R:3:spacegroup_kinds:I:1:momenta:R:3:forces:R:3 spacegroup="P 1" unit_cell=conventional occupancy="_JSON {\"0\": {\"Al\": 1}, \"1\": {\"Al\": 1}, \"2\": {\"N\": 1}, \"3\": {\"N\": 1}}" energy=-29.61878776550293 free_energy=-29.61878776550293 stress="0.01011782605201006 -0.001821974292397499 -0.0018730602459982038 -0.001821974292397499 -0.024783002212643623 0.004591094329953194 -0.0018730602459982038 0.004591094329953194 2.6385818273411132e-05" pbc="T T T"
Al       1.53818034       0.90928019       2.47247628        0       0.23228467      -0.27447315       1.41733346       0.21200812       0.18702313       0.85530853
Al       0.01802692       1.81430745       5.03506521        1       0.60360825      -0.42930296      -1.11140837       0.03760176      -0.69444191      -0.55142570
N        1.59518013       0.85128049       4.42414645        2       0.09084618       0.02420722      -0.77345442      -0.19470239       0.84070593       0.01228033
N       -0.01452984       1.83034433       1.92467365        3      -0.92673908       0.67956897       0.46752946      -0.05490730      -0.33328718      -0.31616303
4
Lattice="3.128588 0.0 0.0 -1.5642939988088433 2.709436998432005 0.0 0.0 0.0 5.016955" Properties=species:S:1:pos:R:3:spacegroup_kinds:I:1:momenta:R:3:forces:R:3 spacegroup="P 1" unit_cell=conventional occupancy="_JSON {\"0\": {\"Al\": 1}, \"1\": {\"Al\": 1}, \"2\": {\"N\": 1}, \"3\": {\"N\": 1}}" energy=-29.62374496459961 free_energy=-29.62374496459961 stress="0.004300489090383053 -0.00867258757352829 0.002882064087316394 -0.00867258757352829 -0.006943817716091871 -0.0044348593801259995 0.002882064087316394 -0.0044348593801259995 -0.014838590286672115" pbc="T T T"
Al       1.54321202       0.89379622       2.53645984        0      -0.00705474      -0.41529171       0.79445105      -0.25249889       0.39303076      -0.87833905
Al       0.03580901       1.79893953       4.98957806        1       0.09337945      -0.29525132      -0.61192063      -0.16601291       0.14058337       0.62744677
N        1.59619757       0.90645096       4.40111854        2      -0.02189840       1.09350653       0.27120876      -0.08899659      -0.09593990       0.34910524
N       -0.05911255       1.83464210       1.91219264        3      -0.06442629      -0.38296349      -0.45373908       0.50750834      -0.43767413      -0.09821295
