4
Lattice="3.128588 0.0 0.0 -1.5642939988088433 2.709436998432005 0.0 0.0 0.0 5.016955" Properties=species:S:1:pos:R:3:spacegroup_kinds:I:1:forces:R:3 spacegroup="P 1" unit_cell=conventional occupancy="_JSON {\"0\": {\"Al\": 1}, \"1\": {\"Al\": 1}, \"2\": {\"N\": 1}, \"3\": {\"N\": 1}}" energy=-29.673717498779297 free_energy=-29.673717498779297 stress="-0.0022253922652453184 -1.4683175777463475e-06 -4.189045910152345e-08 -1.4683175777463475e-06 -0.002227436751127243 -2.921384556486828e-08 -4.189045910152345e-08 -2.921384556486828e-08 -0.005453686695545912" pbc="T T T"
Al       1.56429556       0.90314476       2.50490041        0      -0.00003460       0.00002004       0.00553149
Al      -0.00000156       1.80629224       5.01337791        1       0.00003497      -0.00001978       0.00552417
N        1.56429556       0.90314476       4.41849749        2      -0.00003668       0.00002015      -0.00553107
N       -0.00000156       1.80629224       1.91001999        3       0.00003627      -0.00002057      -0.00552443
