4
Lattice="3.128588 0.0 0.0 -1.5642939988088433 2.709436998432005 0.0 0.0 0.0 5.016955" Properties=species:S:1:pos:R:3:spacegroup_kinds:I:1:forces:R:3 spacegroup="P 1" unit_cell=conventional occupancy="_JSON {\"0\": {\"Al\": 1}, \"1\": {\"Al\": 1}, \"2\": {\"N\": 1}, \"3\": {\"N\": 1}}" energy=-29.67371940612793 free_energy=-29.67371940612793 stress="-0.0022253873758018017 -1.3919195680500707e-06 -1.1254253529102698e-08 -1.3919195680500707e-06 -0.002227417891845107 -4.306629008965501e-08 -1.1254253529102698e-08 -4.306629008965501e-08 -0.005453647114336491" pbc="T T T"
Al       1.56429556       0.90314476       2.50490041        0      -0.00003390       0.00002029       0.00553141
Al      -0.00000156       1.80629224       5.01337791        1       0.00003332      -0.00001929       0.00552446
N        1.56429556       0.90314476       4.41849749        2      -0.00003520       0.00001984      -0.00553029
N       -0.00000156       1.80629224       1.91001999        3       0.00003585      -0.00002076      -0.00552552
