32
Lattice="6.17176593 0.0 0.0 0.0 8.01859859 0.0 0.0 0.0 13.03281824" Properties=species:S:1:pos:R:3:spacegroup_kinds:I:1:momenta:R:3:forces:R:3 spacegroup="P 1" unit_cell=conventional occupancy="_JSON {\"0\": {\"Li\": 1}, \"1\": {\"Li\": 1}, \"2\": {\"Li\": 1}, \"3\": {\"Li\": 1}, \"4\": {\"Li\": 1}, \"5\": {\"Li\": 1}, \"6\": {\"Li\": 1}, \"7\": {\"Li\": 1}, \"8\": {\"Li\": 1}, \"9\": {\"Li\": 1}, \"10\": {\"Li\": 1}, \"11\": {\"Li\": 1}, \"12\": {\"P\": 1}, \"13\": {\"P\": 1}, \"14\": {\"P\": 1}, \"15\": {\"P\": 1}, \"16\": {\"S\": 1}, \"17\": {\"S\": 1}, \"18\": {\"S\": 1}, \"19\": {\"S\": 1}, \"20\": {\"S\": 1}, \"21\": {\"S\": 1}, \"22\": {\"S\": 1}, \"23\": {\"S\": 1}, \"24\": {\"S\": 1}, \"25\": {\"S\": 1}, \"26\": {\"S\": 1}, \"27\": {\"S\": 1}, \"28\": {\"S\": 1}, \"29\": {\"S\": 1}, \"30\": {\"S\": 1}, \"31\": {\"S\": 1}}" energy=-140.1565704345703 free_energy=-140.1565704345703 stress="0.0004494083987083286 -2.0366107492009178e-05 -0.00015610650007147342 -2.0366107492009178e-05 -0.0003658940549939871 0.00011152778461109847 -0.00015610650007147342 0.00011152778461109847 -0.0008514424553140998" pbc="T T T"
Li       2.44622888       0.28333591       4.22854915        0       0.18478417       0.04568116       0.00680460      -0.09584787       0.04800186       0.29651874
Li       3.74982276       7.78300310       8.68853140        1      -0.17289897      -0.00857979       0.11217628       0.04415935      -0.12456951       0.11213507
Li       5.45913302       7.72548075       2.32310994        2       0.02560930      -0.01529709      -0.00910756       0.15496141       0.01669079      -0.30178350
Li       0.72518576       0.23080893      10.76501044        3       0.11543073       0.08103287      -0.00413927      -0.04868559       0.10420171       0.29553819
Li       3.77934287       4.25690161       8.68050178        4       0.02182642      -0.21004282      -0.07439570      -0.06875511      -0.03897863       0.07230876
Li       2.35394114       3.80588428       4.29407899        5      -0.32687815       0.25929822      -0.09862393       0.02025789      -0.06169956       0.08149192
Li       0.73119032       3.82186606      10.85785104        6       0.09122787      -0.14624186       0.03411227       0.00564192      -0.16120332      -0.07151356
Li       5.50401942       4.28114544       2.11859393        7       0.13640909      -0.05423007      -0.16411931      -0.07854025      -0.04323303       0.09194198
Li       3.22307165       0.09027346       0.14887202        8       0.19177459       0.11786177       0.26216451       0.08994104      -0.00023613      -0.16668378
Li      -0.07812095      -0.05354832       6.57621632        9      -0.01912003       0.12823505       0.06649515       0.11908826       0.11513864      -0.04121144
Li       3.10853369       3.94748819       0.02053207       10      -0.14961405      -0.06812347      -0.01745469       0.10670229       0.11663581      -0.04279441
Li      -0.10431203       4.02942397       6.51606065       11      -0.09714318      -0.25769028      -0.23989056       0.22910891      -0.15500832       0.16091436
P        0.92872395       2.02357815       1.13747599       12       0.17182495      -0.33323650      -0.04181966      -0.00209497      -0.34015995       0.10402648
P        5.26594719       5.97752348      11.84175160       13       0.39722632      -0.07519513      -0.61118047      -0.30112323       0.33905172       0.33138624
P        4.02141644       5.99604270       5.35430219       14      -0.18141951      -0.97077380       0.19506758      -0.14145869       0.20792691       0.10108778
P        2.10646066       2.00025690       7.66639630       15      -0.58412697      -0.19440685      -0.48191726       0.04608361       0.30604613       0.16923544
S        5.04784641       1.95100189       1.29195954       16       0.22413082      -0.23636524      -0.00897899       0.27656302       0.19244374       0.03711308
S        1.12652804       6.02830775      11.70938022       17       0.02040425       0.28325098       0.11663767      -0.04775836      -0.07114716       0.01795130
S        1.97090722       6.05413342       5.20645159       18      -0.20174345       0.22469670       0.29879114       0.37522405      -0.12890983      -0.01192202
S        4.15636676       1.97861124       7.82991037       19      -0.64772024      -0.09119281      -0.20821364      -0.12517014       0.09522891      -0.04397839
S        1.70580714       2.05183579      12.23069173       20      -0.25634930       0.57915201       0.00748953      -0.09049421      -0.19093053       0.13813746
S        4.51381249       6.01679577       0.80281710       21       0.85029760      -0.21718504       0.36599450       0.06949855      -0.13933113      -0.40060997
S        4.77678279       5.98085565       7.33568168       22       0.44681902      -0.03108145      -0.09525898      -0.16927478       0.14030348      -0.37094367
S        1.39490672       2.00313347       5.71129401       23       0.09489999      -0.02498466      -0.06783481      -0.07148928      -0.01977939       0.15630841
S        1.68494485       0.30338185       2.02823233       24      -0.54716856       0.25429513       0.06651441      -0.21327636       0.19241847      -0.35401815
S        4.52188881       7.73782296      11.05126227       25       0.39120279       0.07376903       0.86812040      -0.02921153      -0.20447439      -0.04358086
S        4.74718472       7.75438401       4.52690758       26      -0.11293947       0.80449799       0.25111657       0.03444896      -0.24489327       0.35228372
S        1.38380544       0.27261047       8.54426690       27       0.06182042      -0.19778794       0.07606800       0.02192575       0.13255216      -0.37569171
S        4.50561890       4.24671197      11.01613351       28       0.33805455      -0.00692865       0.21773241       0.09219958       0.19656545       0.11947585
S        1.67342603       3.74618815       1.98067554       29      -0.59713104       0.22146626      -0.59611624      -0.08841373      -0.01581196       0.01621220
S        1.37907967       3.75885103       8.52637104       30       0.01463642      -0.05089396      -0.33935532       0.14082570      -0.41768184      -0.27870861
S        4.79662836       4.27898095       4.52211762       31       0.11587369       0.11700025       0.11312138      -0.25503635       0.15484236      -0.15062705
