32
Lattice="6.17176593 0.0 0.0 0.0 8.01859859 0.0 0.0 0.0 13.03281824" Properties=species:S:1:pos:R:3:spacegroup_kinds:I:1:momenta:R:3:forces:R:3 spacegroup="P 1" unit_cell=conventional occupancy="_JSON {\"0\": {\"Li\": 1}, \"1\": {\"Li\": 1}, \"2\": {\"Li\": 1}, \"3\": {\"Li\": 1}, \"4\": {\"Li\": 1}, \"5\": {\"Li\": 1}, \"6\": {\"Li\": 1}, \"7\": {\"Li\": 1}, \"8\": {\"Li\": 1}, \"9\": {\"Li\": 1}, \"10\": {\"Li\": 1}, \"11\": {\"Li\": 1}, \"12\": {\"P\": 1}, \"13\": {\"P\": 1}, \"14\": {\"P\": 1}, \"15\": {\"P\": 1}, \"16\": {\"S\": 1}, \"17\": {\"S\": 1}, \"18\": {\"S\": 1}, \"19\": {\"S\": 1}, \"20\": {\"S\": 1}, \"21\": {\"S\": 1}, \"22\": {\"S\": 1}, \"23\": {\"S\": 1}, \"24\": {\"S\": 1}, \"25\": {\"S\": 1}, \"26\": {\"S\": 1}, \"27\": {\"S\": 1}, \"28\": {\"S\": 1}, \"29\": {\"S\": 1}, \"30\": {\"S\": 1}, \"31\": {\"S\": 1}}" energy=-140.31869506835938 free_energy=-140.31869506835938 stress="-0.0071706282906234264 -7.069467788944905e-10 4.334755221435671e-09 -7.069467788944905e-10 -0.008259423077106476 -1.4483378940610692e-08 4.334755221435671e-09 -1.4483378940610692e-08 -0.005266303662210703" pbc="T T T"
Li       2.40329652       0.26860172       4.33400832        0       0.00000000       0.00000000       0.00000000      -0.02603591       0.00549144      -0.00432173
Li       3.76846941       7.74999687       8.69880992        1       0.00000000       0.00000000       0.00000000       0.02603597      -0.00549143       0.00432346
Li       5.48917948       7.74999687       2.18240080        2       0.00000000       0.00000000       0.00000000      -0.02603602      -0.00549078       0.00432283
Li       0.68258645       0.26860172      10.85041744        3       0.00000000       0.00000000       0.00000000       0.02603551       0.00549220      -0.00431973
Li       3.76846941       4.27790102       8.69880992        4       0.00000000       0.00000000       0.00000000       0.02603628       0.00549203       0.00432252
Li       2.40329652       3.74069757       4.33400832        5       0.00000000       0.00000000       0.00000000      -0.02603609      -0.00549148      -0.00432152
Li       0.68258645       3.74069757      10.85041744        6       0.00000000       0.00000000       0.00000000       0.02603596      -0.00549221      -0.00431994
Li       5.48917948       4.27790102       2.18240080        7       0.00000000       0.00000000       0.00000000      -0.02603556       0.00549044       0.00432265
Li       3.08588297       0.00000000       0.00000000        8       0.00000000       0.00000000       0.00000000      -0.00000082      -0.00000345       0.00000038
Li       0.00000000       0.00000000       6.51640912        9       0.00000000       0.00000000       0.00000000       0.00000121      -0.00000226       0.00000067
Li       3.08588297       4.00929929       0.00000000       10       0.00000000       0.00000000       0.00000000      -0.00000041       0.00000082      -0.00000127
Li       0.00000000       4.00929929       6.51640912       11       0.00000000       0.00000000       0.00000000       0.00000002      -0.00000121      -0.00000053
P        0.94051010       2.00464965       1.16601784       12       0.00000000       0.00000000       0.00000000      -0.02067122      -0.00000137       0.02376113
P        5.23125583       6.01394894      11.86680040       13       0.00000000       0.00000000       0.00000000       0.02066663       0.00000063      -0.02375932
P        4.02639307       6.01394894       5.35039128       14       0.00000000       0.00000000       0.00000000      -0.02066769      -0.00000056      -0.02375723
P        2.14537286       2.00464965       7.68242696       15       0.00000000       0.00000000       0.00000000       0.02066878      -0.00000052       0.02375787
S        5.08970823       2.00464965       1.30575389       16       0.00000000       0.00000000       0.00000000      -0.25450554       0.00000019       0.01679052
S        1.08205770       6.01394894      11.72706435       17       0.00000000       0.00000000       0.00000000       0.25450712       0.00000060      -0.01679216
S        2.00382526       6.01394894       5.21065523       18       0.00000000       0.00000000       0.00000000      -0.25450644       0.00000019      -0.01679163
S        4.16794067       2.00464965       7.82216301       19       0.00000000       0.00000000       0.00000000       0.25450042       0.00000145       0.01679108
S        1.68132889       2.00464965      12.25955363       20       0.00000000       0.00000000       0.00000000       0.10912260       0.00000020      -0.16719666
S        4.49043704       6.01394894       0.77326461       21       0.00000000       0.00000000       0.00000000      -0.10912053      -0.00000006       0.16718128
S        4.76721186       6.01394894       7.28967373       22       0.00000000       0.00000000       0.00000000       0.10912100      -0.00000010       0.16717964
S        1.40455407       2.00464965       5.74314451       23       0.00000000       0.00000000       0.00000000      -0.10911973       0.00000039      -0.16718130
S        1.67233151       0.29287049       2.00524453       24       0.00000000       0.00000000       0.00000000       0.13957758      -0.21272534       0.08709983
S        4.49943442       7.72572810      11.02757371       25       0.00000000       0.00000000       0.00000000      -0.13957557       0.21272454      -0.08709246
S        4.75821447       7.72572810       4.51116459       26       0.00000000       0.00000000       0.00000000       0.13957576       0.21272562      -0.08709146
S        1.41355146       0.29287049       8.52165365       27       0.00000000       0.00000000       0.00000000      -0.13957584      -0.21272074       0.08709130
S        4.49943442       4.30216979      11.02757371       28       0.00000000       0.00000000       0.00000000      -0.13957718      -0.21272451      -0.08709444
S        1.67233151       3.71642880       2.00524453       29       0.00000000       0.00000000       0.00000000       0.13957891       0.21272729       0.08709836
S        1.41355146       3.71642880       8.52165365       30       0.00000000       0.00000000       0.00000000      -0.13957596       0.21272236       0.08709019
S        4.75821447       4.30216979       4.51116459       31       0.00000000       0.00000000       0.00000000       0.13957670      -0.21272437      -0.08709238
32
Lattice="6.17176593 0.0 0.0 0.0 8.01859859 0.0 0.0 0.0 13.03281824" Properties=species:S:1:pos:R:3:spacegroup_kinds:I:1:momenta:R:3:forces:R:3 spacegroup="P 1" unit_cell=conventional occupancy="_JSON {\"0\": {\"Li\": 1}, \"1\": {\"Li\": 1}, \"2\": {\"Li\": 1}, \"3\": {\"Li\": 1}, \"4\": {\"Li\": 1}, \"5\": {\"Li\": 1}, \"6\": {\"Li\": 1}, \"7\": {\"Li\": 1}, \"8\": {\"Li\": 1}, \"9\": {\"Li\": 1}, \"10\": {\"Li\": 1}, \"11\": {\"Li\": 1}, \"12\": {\"P\": 1}, \"13\": {\"P\": 1}, \"14\": {\"P\": 1}, \"15\": {\"P\": 1}, \"16\": {\"S\": 1}, \"17\": {\"S\": 1}, \"18\": {\"S\": 1}, \"19\": {\"S\": 1}, \"20\": {\"S\": 1}, \"21\": {\"S\": 1}, \"22\": {\"S\": 1}, \"23\": {\"S\": 1}, \"24\": {\"S\": 1}, \"25\": {\"S\": 1}, \"26\": {\"S\": 1}, \"27\": {\"S\": 1}, \"28\": {\"S\": 1}, \"29\": {\"S\": 1}, \"30\": {\"S\": 1}, \"31\": {\"S\": 1}}" energy=-140.32054138183594 free_energy=-140.32054138183594 stress="-0.006995367351919413 -7.657185960852075e-06 2.5379209546372294e-05 -7.657185960852075e-06 -0.00810759887099266 8.695395081304014e-05 2.5379209546372294e-05 8.695395081304014e-05 -0.0051810042932629585" pbc="T T T"
Li       2.40334383       0.26877399       4.33366981        0      -0.02171951      -0.06085012       0.04301232      -0.02755004       0.00601669      -0.00231418
Li       3.76835591       7.74903972       8.69873861        1      -0.03044925      -0.05418023      -0.05148844       0.02420923      -0.00267748       0.00331170
Li       5.49043827       7.74841923       2.18578805        2       0.07443051      -0.06330839       0.14567169      -0.02639180      -0.00388513      -0.00351258
Li       0.68326352       0.26776047      10.84951671        3       0.01844158      -0.04717503      -0.03434801       0.02558204       0.00723258      -0.00165590
Li       3.76876087       4.27927661       8.69841985        4       0.00489117       0.03450825       0.03080346       0.02370765      -0.00026219       0.00274560
Li       2.40287654       3.73901232       4.33335159        5       0.06586664      -0.14413915      -0.00496607      -0.02291089      -0.00165870      -0.00351204
Li       0.68191526       3.74125596      10.85221441        6      -0.01482226       0.01019796       0.06132944       0.02600971      -0.00799515      -0.00730221
Li       5.48729558       4.27937244       2.18291519        7      -0.04050313       0.07176792       0.04753915      -0.02034210      -0.00009673       0.00495301
Li       3.08684123       0.00119353      -0.00045919        8       0.00967706       0.08619317       0.01982090       0.00119754       0.00013696      -0.00031961
Li      -0.00050851      -0.00106522       6.51700047        9      -0.05944008      -0.02745934       0.06690026       0.00192614       0.00077882       0.00324804
Li       3.08541588       4.00893180      -0.00184822       10      -0.01920058      -0.04407879      -0.08549685      -0.00222019       0.00036745       0.00350401
Li       0.00105399       4.00722276       6.51635547       11      -0.00213628      -0.07987167      -0.02558723      -0.00574400       0.00385363      -0.00033905
P        0.93957467       2.00437545       1.16642670       12      -0.11750016      -0.00046702       0.01723570       0.00675833       0.02600306       0.01871789
P        5.23173642       6.01360998      11.86666740       13       0.02000244      -0.03954600      -0.03829380       0.01293904       0.00550240      -0.03254926
P        4.02692340       6.01570596       5.34915491       14       0.10658275       0.43330771      -0.22730305      -0.02702368      -0.05001455      -0.00241706
P        2.14422162       2.00482944       7.68332923       15      -0.25563060       0.04422707       0.09366357       0.05114859       0.00280257       0.01792154
S        5.09000975       2.00392604       1.30561669       16      -0.04978695      -0.10795130      -0.04116676      -0.26790476       0.00057876       0.02076108
S        1.08306875       6.01352602      11.72660742       17       0.25198584      -0.01455391      -0.16915959       0.24188529       0.00001463      -0.01640398
S        2.00377924       6.01350549       5.21077301       18      -0.19892807      -0.07479620      -0.07321360      -0.24295506       0.00642239      -0.02144111
S        4.16861950       2.00388715       7.82199676       19       0.23473687      -0.17275015       0.02480695       0.22569740       0.00209039       0.01721252
S        1.68099452       2.00464605      12.25911854       20      -0.06031495      -0.06240308      -0.14218378       0.10564830      -0.00075051      -0.15670206
S        4.49097040       6.01370525       0.77361196       21       0.18883200       0.03117928       0.14992688      -0.10825498       0.00358692       0.15608713
S        4.76628252       6.01358249       7.29012492       22      -0.00013903      -0.06911173       0.15244470       0.11033712       0.00437891       0.15111694
S        1.40344504       2.00535140       5.74379433       23      -0.23877457       0.15782631       0.10414569      -0.10643879      -0.00645845      -0.16790318
S        1.67251693       0.29319624       2.00501313       24       0.02240056       0.04108780      -0.01559475       0.14277637      -0.21773136       0.09113505
S        4.49998105       7.72670125      11.02642494       25       0.03591655       0.18157655      -0.20008853      -0.13144842       0.19109215      -0.07384106
S        4.75967965       7.72577696       4.51155594       26       0.29907506      -0.06909256       0.09155871       0.13995472       0.22997071      -0.09543723
S        1.41239454       0.29357148       8.52204299       27      -0.19645349      -0.00800419       0.08397951      -0.13861012      -0.22001699       0.08789925
S        4.49840565       4.30136781      11.02671715       28      -0.10558090      -0.17222520      -0.24544059      -0.12944636      -0.19475651      -0.07757241
S        1.67298926       3.71781224       2.00538892       29       0.16751005       0.40171005      -0.03231118       0.12492196       0.18972218       0.07477939
S        1.41292059       3.71640285       8.52225074       30      -0.15329373       0.02551724       0.16915084      -0.13765979       0.21611273       0.09114133
S        4.75897339       4.30131843       4.51145242       31       0.06432447      -0.20713524       0.08465241       0.13020146      -0.19036025      -0.08131173
32
Lattice="6.17176593 0.0 0.0 0.0 8.01859859 0.0 0.0 0.0 13.03281824" Properties=species:S:1:pos:R:3:spacegroup_kinds:I:1:momenta:R:3:forces:R:3 spacegroup="P 1" unit_cell=conventional occupancy="_JSON {\"0\": {\"Li\": 1}, \"1\": {\"Li\": 1}, \"2\": {\"Li\": 1}, \"3\": {\"Li\": 1}, \"4\": {\"Li\": 1}, \"5\": {\"Li\": 1}, \"6\": {\"Li\": 1}, \"7\": {\"Li\": 1}, \"8\": {\"Li\": 1}, \"9\": {\"Li\": 1}, \"10\": {\"Li\": 1}, \"11\": {\"Li\": 1}, \"12\": {\"P\": 1}, \"13\": {\"P\": 1}, \"14\": {\"P\": 1}, \"15\": {\"P\": 1}, \"16\": {\"S\": 1}, \"17\": {\"S\": 1}, \"18\": {\"S\": 1}, \"19\": {\"S\": 1}, \"20\": {\"S\": 1}, \"21\": {\"S\": 1}, \"22\": {\"S\": 1}, \"23\": {\"S\": 1}, \"24\": {\"S\": 1}, \"25\": {\"S\": 1}, \"26\": {\"S\": 1}, \"27\": {\"S\": 1}, \"28\": {\"S\": 1}, \"29\": {\"S\": 1}, \"30\": {\"S\": 1}, \"31\": {\"S\": 1}}" energy=-140.32469177246094 free_energy=-140.32469177246094 stress="-0.006387874949723482 -0.00010187865700572729 0.00015939843433443457 -0.00010187865700572729 -0.007604372221976519 0.0003038160502910614 0.00015939843433443457 0.0003038160502910614 -0.004904187750071287" pbc="T T T"
Li       2.40317395       0.26716090       4.33692580        0      -0.04425912       0.07099918       0.13453097      -0.03348752       0.00968655      -0.00698122
Li       3.77074372       7.74721574       8.69748168        1       0.12624936      -0.01402005      -0.03325398       0.01733476       0.00249086       0.00548464
Li       5.49253265       7.74795060       2.19278550        2       0.08739053      -0.00472363       0.21377435      -0.02510049      -0.00312259      -0.01942441
Li       0.68306927       0.26455130      10.84781903        3       0.03936850      -0.09569310      -0.01953385       0.02686671       0.01171492       0.00388854
Li       3.76819463       4.28270882       8.69971544        4       0.01662548       0.17477944       0.11172221       0.02179647      -0.01224620      -0.00262941
Li       2.40570776       3.73503918       4.33197475        5       0.11717960      -0.09061478      -0.09559745      -0.02580203       0.00729624      -0.00172599
Li       0.68411938       3.74084361      10.85556012        6       0.12040868      -0.04462299       0.12625288       0.01704140      -0.00554636      -0.01276619
Li       5.48786694       4.28093006       2.18343733        7       0.08754846       0.08981252      -0.07036141      -0.01842435      -0.00731401       0.00830974
Li       3.09006276       0.00470850       0.00138291        8       0.14232413       0.12010953       0.04907954       0.00389850       0.00000497      -0.00341217
Li      -0.00248017      -0.00316888       6.52029128        9      -0.09748415      -0.13190982       0.12027966       0.00639917       0.00450596       0.00456867
Li       3.08845641       4.00813674      -0.00159807       10       0.14659471       0.04024298       0.11053035      -0.00489168      -0.00155735       0.00427059
Li       0.00094465       4.00707828       6.51630838       11      -0.02959970       0.10604292       0.02359981      -0.00723990       0.00355183       0.00093415
P        0.93864434       2.00483476       1.16449766       12       0.01044249       0.06957181      -0.40432611       0.02595742       0.04085046       0.04533518
P        5.23144102       6.01326685      11.86794064       13       0.00016378      -0.06422572       0.28848632       0.01419520       0.00900389      -0.08252339
P        4.02820903       6.02011499       5.34777259       14       0.21446091       0.58970147      -0.15013602      -0.06576023      -0.16841602       0.03371530
P        2.14199025       2.00419671       7.68404050       15      -0.27724107      -0.08720077       0.11574310       0.10506898       0.03156077       0.01600151
S        5.08827874       2.00172858       1.30445754       16      -0.41163832      -0.40157720      -0.25187961      -0.24636562       0.01025579       0.02410566
S        1.08404721       6.01246217      11.72517608       17       0.03533975      -0.31857860      -0.19119262       0.21520154       0.00112665      -0.01176067
S        2.00217967       6.01370704       5.21091926       18      -0.22666872       0.18938085       0.07924206      -0.19276817       0.01018907      -0.02213823
S        4.17070014       2.00165562       7.82249944       19       0.19168047      -0.30552060       0.08559740       0.15636575       0.01129990       0.01401513
S        1.68102663       2.00449914      12.25736502       20       0.07340263      -0.07226458      -0.24160413       0.10251898      -0.00478597      -0.14276350
S        4.49282977       6.01413091       0.77451685       21       0.28204239       0.15300096       0.12158103      -0.11187393       0.00644479       0.15636769
S        4.76758057       6.01286372       7.29165785       22       0.31650752      -0.24159251       0.31868936       0.10024478       0.01311945       0.11124714
S        1.40173390       2.00586171       5.74278002       23      -0.27817912      -0.01503580      -0.37588528      -0.09962860      -0.01267804      -0.14273372
S        1.67289577       0.29316997       2.00549832       24       0.15036391      -0.07634606       0.06621384       0.13609628      -0.19274656       0.08289607
S        4.50007765       7.72855880      11.02440155       25      -0.05407866       0.33181966      -0.36511607      -0.11912256       0.14977361      -0.04530804
S        4.76066773       7.72563435       4.51181169       26       0.01270504       0.02833359      -0.10528332       0.15284277       0.27314013      -0.10819536
S        1.41091668       0.29382330       8.52323097       27      -0.21418224       0.03635561       0.09771201      -0.13391565      -0.22357193       0.08280351
S        4.49630318       4.29980319      11.02498296       28      -0.47800516      -0.27526486      -0.27665435      -0.10671434      -0.15674037      -0.04900157
S        1.67447936       3.72115979       2.00451770       29       0.15086908       0.53761852      -0.06895455       0.09667292       0.13981900       0.05046443
S        1.41180883       3.71767050       8.52444892       30      -0.16706764       0.09040119       0.41863040      -0.12372523       0.18630224       0.07232378
S        4.75884554       4.29908577       4.51206790       31      -0.04326354      -0.38897915       0.16811343       0.11631865      -0.13341156      -0.06536800
32
Lattice="6.17176593 0.0 0.0 0.0 8.01859859 0.0 0.0 0.0 13.03281824" Properties=species:S:1:pos:R:3:spacegroup_kinds:I:1:momenta:R:3:forces:R:3 spacegroup="P 1" unit_cell=conventional occupancy="_JSON {\"0\": {\"Li\": 1}, \"1\": {\"Li\": 1}, \"2\": {\"Li\": 1}, \"3\": {\"Li\": 1}, \"4\": {\"Li\": 1}, \"5\": {\"Li\": 1}, \"6\": {\"Li\": 1}, \"7\": {\"Li\": 1}, \"8\": {\"Li\": 1}, \"9\": {\"Li\": 1}, \"10\": {\"Li\": 1}, \"11\": {\"Li\": 1}, \"12\": {\"P\": 1}, \"13\": {\"P\": 1}, \"14\": {\"P\": 1}, \"15\": {\"P\": 1}, \"16\": {\"S\": 1}, \"17\": {\"S\": 1}, \"18\": {\"S\": 1}, \"19\": {\"S\": 1}, \"20\": {\"S\": 1}, \"21\": {\"S\": 1}, \"22\": {\"S\": 1}, \"23\": {\"S\": 1}, \"24\": {\"S\": 1}, \"25\": {\"S\": 1}, \"26\": {\"S\": 1}, \"27\": {\"S\": 1}, \"28\": {\"S\": 1}, \"29\": {\"S\": 1}, \"30\": {\"S\": 1}, \"31\": {\"S\": 1}}" energy=-140.3270721435547 free_energy=-140.3270721435547 stress="-0.005647643003612757 -0.00021954010298941284 0.0003557981108315289 -0.00021954010298941284 -0.0068827178329229355 0.0004735265683848411 0.0003557981108315289 0.0004735265683848411 -0.004531837999820709" pbc="T T T"
Li       2.40082206       0.27013930       4.33855012        0      -0.11660942       0.09492240       0.03079811      -0.03506164       0.00380085      -0.00727067
Li       3.77249963       7.74786706       8.69463046        1       0.02486497       0.03907126      -0.09168398       0.01392194      -0.00048524       0.01142000
Li       5.49489113       7.74678605       2.20046628        2       0.06012742      -0.08589765       0.18627156      -0.02228682       0.00246966      -0.03557450
Li       0.68415769       0.26186892      10.84682004        3      -0.00318003      -0.08243163      -0.03238614       0.02263157       0.01433026       0.00618942
Li       3.76998467       4.28752979       8.70222891        4       0.07306527       0.13473977      -0.00793361       0.01305360      -0.03023970      -0.00946455
Li       2.40764462       3.73218439       4.32827780        5       0.03845643      -0.07432341      -0.10882733      -0.02845450       0.01616430       0.00772876
Li       0.68738064       3.74174335      10.85829595        6       0.08869345       0.09715737      -0.00917368       0.00665226      -0.00687754      -0.01611700
Li       5.48955695       4.28438505       2.18008026        7       0.08181312       0.12292035      -0.11691088      -0.01806021      -0.02061960       0.02377773
Li       3.09650826       0.01070991       0.00321972        8       0.19786649       0.20672547       0.10341927       0.00767233       0.00132936      -0.00376648
Li      -0.00759819      -0.00724358       6.52249191        9      -0.13774756      -0.03294100       0.06149921       0.02147007       0.01504289       0.01058642
Li       3.09660031       4.00864019       0.00249422       10       0.26444918      -0.00921918       0.09377169      -0.01127673      -0.00942265       0.00298812
Li      -0.00148421       4.01275306       6.51692799       11      -0.13695976       0.19379756       0.06948692       0.00364709      -0.00889023       0.00182828
P        0.93902654       2.00582645       1.16058117       12       0.04991126       0.16258185      -0.47086378       0.00956984       0.05032778       0.10949071
P        5.23198181       6.01163820      11.87032491       13       0.10373589      -0.20888375       0.31786876      -0.01990820       0.04338921      -0.17145911
P        4.03011628       6.02474813       5.34705774       14       0.28205620       0.61270680      -0.09171836      -0.12518179      -0.30452409       0.06705198
P        2.13973198       2.00435635       7.68520874       15      -0.22411151       0.05894097       0.18853995       0.13703322       0.03156262      -0.01859450
S        5.08504790       1.99930036       1.30256170       16      -0.47977052      -0.30738860      -0.24445969      -0.18317933       0.02265159       0.02405995
S        1.08422036       6.01081735      11.72332721       17      -0.00957827      -0.22188943      -0.27730271       0.20546550       0.00304988      -0.00442445
S        2.00057502       6.01530502       5.21099832       18      -0.28469154       0.16461324       0.03359513      -0.13214597       0.01265991      -0.02108919
S        4.17220712       1.99873699       7.82226105       19       0.18171187      -0.41180574      -0.21817947       0.09574541       0.02720570       0.01210335
S        1.68281495       2.00453380      12.25603229       20       0.44491652       0.08383886      -0.19595902       0.10240415      -0.00400139      -0.14325443
S        4.49468464       6.01489983       0.77548187       21       0.29649950       0.14775763       0.00170980      -0.11623372       0.00876243       0.16375656
S        4.77003246       6.00886989       7.29446360       22       0.30928454      -0.68089303       0.43827009       0.08472665       0.04190941       0.06539930
S        1.39958362       2.00564121       5.73974113       23      -0.37696738       0.06366375      -0.37915459      -0.08970946      -0.00688382      -0.07966017
S        1.67348870       0.29308577       2.00669461       24       0.10415329      -0.09575697       0.14569301       0.12336693      -0.15320498       0.05915889
S        4.49911798       7.73133057      11.02199598       25      -0.21064137       0.28331429      -0.18181620      -0.08779338       0.07507592      -0.00067585
S        4.75981648       7.72601973       4.51244474       26      -0.13727749      -0.01526925       0.09916022       0.17216644       0.31806964      -0.12049703
S        1.40930108       0.29291538       8.52404240       27      -0.34580947      -0.19834885       0.22160725      -0.12799256      -0.20944723       0.07115789
S        4.49334338       4.29747839      11.02253974       28      -0.25936062      -0.33138367      -0.34471429      -0.07556839      -0.11030885      -0.00676815
S        1.67608892       3.72564802       2.00434919       29       0.23315413       0.51939163       0.04452884       0.06228567       0.07678049       0.01076768
S        1.41082205       3.71864214       8.52734457       30      -0.08329468       0.24198383       0.37061706      -0.11001553       0.16437887       0.05240468
S        4.75859595       4.29555981       4.51458700       31      -0.02875990      -0.47169482       0.36424684       0.10105544      -0.06405540      -0.06125371
32
Lattice="6.17176593 0.0 0.0 0.0 8.01859859 0.0 0.0 0.0 13.03281824" Properties=species:S:1:pos:R:3:spacegroup_kinds:I:1:momenta:R:3:forces:R:3 spacegroup="P 1" unit_cell=conventional occupancy="_JSON {\"0\": {\"Li\": 1}, \"1\": {\"Li\": 1}, \"2\": {\"Li\": 1}, \"3\": {\"Li\": 1}, \"4\": {\"Li\": 1}, \"5\": {\"Li\": 1}, \"6\": {\"Li\": 1}, \"7\": {\"Li\": 1}, \"8\": {\"Li\": 1}, \"9\": {\"Li\": 1}, \"10\": {\"Li\": 1}, \"11\": {\"Li\": 1}, \"12\": {\"P\": 1}, \"13\": {\"P\": 1}, \"14\": {\"P\": 1}, \"15\": {\"P\": 1}, \"16\": {\"S\": 1}, \"17\": {\"S\": 1}, \"18\": {\"S\": 1}, \"19\": {\"S\": 1}, \"20\": {\"S\": 1}, \"21\": {\"S\": 1}, \"22\": {\"S\": 1}, \"23\": {\"S\": 1}, \"24\": {\"S\": 1}, \"25\": {\"S\": 1}, \"26\": {\"S\": 1}, \"27\": {\"S\": 1}, \"28\": {\"S\": 1}, \"29\": {\"S\": 1}, \"30\": {\"S\": 1}, \"31\": {\"S\": 1}}" energy=-140.32566833496094 free_energy=-140.32566833496094 stress="-0.004850572440773249 -0.00032392225693911314 0.0005361298099160194 -0.00032392225693911314 -0.006126808933913708 0.000590943789575249 0.0005361298099160194 0.000590943789575249 -0.004097118508070707" pbc="T T T"
Li       2.39949661       0.27261106       4.33931525        0      -0.05464167       0.03776925      -0.01827238      -0.03876114      -0.00097121      -0.00649045
Li       3.77364514       7.74933335       8.68998461        1      -0.00199110       0.01995000      -0.15240134       0.01022633      -0.00724128       0.02389547
Li       5.49604017       7.74495132       2.20950397        2       0.01119585      -0.02242667       0.29096952      -0.01448189       0.01040255      -0.05700292
Li       0.68544631       0.25994989      10.84615443        3       0.04943632      -0.02878963      -0.06778907       0.01820636       0.01844344       0.01131882
Li       3.77093941       4.29128093       8.70311478        4       0.01293602       0.06500058       0.04516932       0.00375588      -0.04418464      -0.00971793
Li       2.41080286       3.73060079       4.32451834        5       0.08685175      -0.02752099      -0.09161004      -0.03625070       0.02284965       0.02065992
Li       0.69177690       3.74652622      10.85596317        6       0.14939473       0.18464160      -0.02668676      -0.00077477      -0.01649210      -0.00939303
Li       5.49471026       4.29138126       2.17314818        7       0.14243721       0.19568568      -0.26598558      -0.02577633      -0.03938209       0.04409899
Li       3.10522810       0.01789747       0.00866040        8       0.29067180       0.18075599       0.17324789       0.01062480       0.00551632      -0.00812413
Li      -0.01207829      -0.01110520       6.52588869        9      -0.06663582      -0.12529990       0.13793099       0.03774001       0.02271017       0.01477700
Li       3.10590746       4.00956260       0.00512401       10       0.23043804       0.02196264       0.04584704      -0.01850067      -0.01980826       0.00222668
Li      -0.00627306       4.01979137       6.52132782       11      -0.21251038       0.19714046       0.12208712       0.01749233      -0.02448691      -0.00510911
P        0.93954315       2.00835565       1.15747066       12       0.14447801       0.38290697      -0.39722342      -0.02775949       0.00623319       0.14637150
P        5.23326255       6.01077410      11.87185282       13       0.30744067       0.02296744       0.11868668      -0.05213076       0.05194487      -0.26250580
P        4.03227373       6.02925817       5.34637756       14       0.32757942       0.38044506      -0.09193757      -0.20679408      -0.44712156       0.10886353
P        2.13879375       2.00466523       7.68597962       15      -0.08880618       0.07565368       0.10421524       0.10872129       0.01342523      -0.04579267
S        5.08036361       1.99571041       1.30027171       16      -0.76432397      -0.54820022      -0.35671070      -0.09723724       0.04411546       0.02605325
S        1.08504015       6.00984473      11.72172562       17       0.23371906       0.04074236      -0.22986897       0.19760948       0.00694516       0.00365461
S        1.99712179       6.01768360       5.21175076       18      -0.50406782       0.38025681       0.12844012      -0.03887515       0.01437691      -0.02050348