32
Lattice="6.17176593 0.0 0.0 0.0 8.01859859 0.0 0.0 0.0 13.03281824" Properties=species:S:1:pos:R:3:spacegroup_kinds:I:1:forces:R:3 spacegroup="P 1" unit_cell=conventional occupancy="_JSON {\"0\": {\"Li\": 1}, \"1\": {\"Li\": 1}, \"2\": {\"Li\": 1}, \"3\": {\"Li\": 1}, \"4\": {\"Li\": 1}, \"5\": {\"Li\": 1}, \"6\": {\"Li\": 1}, \"7\": {\"Li\": 1}, \"8\": {\"Li\": 1}, \"9\": {\"Li\": 1}, \"10\": {\"Li\": 1}, \"11\": {\"Li\": 1}, \"12\": {\"P\": 1}, \"13\": {\"P\": 1}, \"14\": {\"P\": 1}, \"15\": {\"P\": 1}, \"16\": {\"S\": 1}, \"17\": {\"S\": 1}, \"18\": {\"S\": 1}, \"19\": {\"S\": 1}, \"20\": {\"S\": 1}, \"21\": {\"S\": 1}, \"22\": {\"S\": 1}, \"23\": {\"S\": 1}, \"24\": {\"S\": 1}, \"25\": {\"S\": 1}, \"26\": {\"S\": 1}, \"27\": {\"S\": 1}, \"28\": {\"S\": 1}, \"29\": {\"S\": 1}, \"30\": {\"S\": 1}, \"31\": {\"S\": 1}}" energy=-140.31869506835938 free_energy=-140.31869506835938 stress="-0.0071706282906234264 -7.069467788944905e-10 4.334755221435671e-09 -7.069467788944905e-10 -0.008259423077106476 -1.4483378940610692e-08 4.334755221435671e-09 -1.4483378940610692e-08 -0.005266303662210703" pbc="T T T"
Li       2.40329652       0.26860172       4.33400832        0      -0.02603591       0.00549144      -0.00432173
Li       3.76846941       7.74999687       8.69880992        1       0.02603597      -0.00549143       0.00432346
Li       5.48917948       7.74999687       2.18240080        2      -0.02603602      -0.00549078       0.00432283
Li       0.68258645       0.26860172      10.85041744        3       0.02603551       0.00549220      -0.00431973
Li       3.76846941       4.27790102       8.69880992        4       0.02603628       0.00549203       0.00432252
Li       2.40329652       3.74069757       4.33400832        5      -0.02603609      -0.00549148      -0.00432152
Li       0.68258645       3.74069757      10.85041744        6       0.02603596      -0.00549221      -0.00431994
Li       5.48917948       4.27790102       2.18240080        7      -0.02603556       0.00549044       0.00432265
Li       3.08588297       0.00000000       0.00000000        8      -0.00000082      -0.00000345       0.00000038
Li       0.00000000       0.00000000       6.51640912        9       0.00000121      -0.00000226       0.00000067
Li       3.08588297       4.00929929       0.00000000       10      -0.00000041       0.00000082      -0.00000127
Li       0.00000000       4.00929929       6.51640912       11       0.00000002      -0.00000121      -0.00000053
P        0.94051010       2.00464965       1.16601784       12      -0.02067122      -0.00000137       0.02376113
P        5.23125583       6.01394894      11.86680040       13       0.02066663       0.00000063      -0.02375932
P        4.02639307       6.01394894       5.35039128       14      -0.02066769      -0.00000056      -0.02375723
P        2.14537286       2.00464965       7.68242696       15       0.02066878      -0.00000052       0.02375787
S        5.08970823       2.00464965       1.30575389       16      -0.25450554       0.00000019       0.01679052
S        1.08205770       6.01394894      11.72706435       17       0.25450712       0.00000060      -0.01679216
S        2.00382526       6.01394894       5.21065523       18      -0.25450644       0.00000019      -0.01679163
S        4.16794067       2.00464965       7.82216301       19       0.25450042       0.00000145       0.01679108
S        1.68132889       2.00464965      12.25955363       20       0.10912260       0.00000020      -0.16719666
S        4.49043704       6.01394894       0.77326461       21      -0.10912053      -0.00000006       0.16718128
S        4.76721186       6.01394894       7.28967373       22       0.10912100      -0.00000010       0.16717964
S        1.40455407       2.00464965       5.74314451       23      -0.10911973       0.00000039      -0.16718130
S        1.67233151       0.29287049       2.00524453       24       0.13957758      -0.21272534       0.08709983
S        4.49943442       7.72572810      11.02757371       25      -0.13957557       0.21272454      -0.08709246
S        4.75821447       7.72572810       4.51116459       26       0.13957576       0.21272562      -0.08709146
S        1.41355146       0.29287049       8.52165365       27      -0.13957584      -0.21272074       0.08709130
S        4.49943442       4.30216979      11.02757371       28      -0.13957718      -0.21272451      -0.08709444
S        1.67233151       3.71642880       2.00524453       29       0.13957891       0.21272729       0.08709836
S        1.41355146       3.71642880       8.52165365       30      -0.13957596       0.21272236       0.08709019
S        4.75821447       4.30216979       4.51116459       31       0.13957670      -0.21272437      -0.08709238
