4
Lattice="3.128588 0.0 0.0 -1.5642939988088433 2.709436998432005 0.0 0.0 0.0 5.016955" Properties=species:S:1:pos:R:3:spacegroup_kinds:I:1:momenta:R:3:forces:R:3 spacegroup="P 1" unit_cell=conventional occupancy="_JSON {\"0\": {\"Al\": 1}, \"1\": {\"Al\": 1}, \"2\": {\"N\": 1}, \"3\": {\"N\": 1}}" energy=-29.62373924255371 free_energy=-29.62373924255371 stress="0.004300182685256004 -0.008672753348946571 0.002882009372115135 -0.008672753348946571 -0.006943925749510527 -0.004434458911418915 0.002882009372115135 -0.004434458911418915 -0.0148389907553792" pbc="T T T"
Al       1.54321207       0.89379622       2.53645983        0      -0.00705392      -0.41529133       0.79445018      -0.25250262       0.39302939      -0.87834537
Al       0.03580898       1.79893952       4.98957806        1       0.09337896      -0.29525071      -0.61191926      -0.16601153       0.14058204       0.62745523
N        1.59619756       0.90645096       4.40111848        2      -0.02189808       1.09350628       0.27120896      -0.08899771      -0.09593697       0.34911662
N       -0.05911266       1.83464212       1.91219266        3      -0.06442702      -0.38296423      -0.45373986       0.50751185      -0.43767440      -0.09822655
