4
Lattice="3.128588 0.0 0.0 -1.5642939988088433 2.709436998432005 0.0 0.0 0.0 5.016955" Properties=species:S:1:pos:R:3:spacegroup_kinds:I:1:momenta:R:3:forces:R:3 spacegroup="P 1" unit_cell=conventional occupancy="_JSON {\"0\": {\"Al\": 1}, \"1\": {\"Al\": 1}, \"2\": {\"N\": 1}, \"3\": {\"N\": 1}}" energy=-29.673717498779297 free_energy=-29.673717498779297 stress="-0.002225347328931093 -1.2794578196917428e-06 -8.223650205252397e-09 -1.2794578196917428e-06 -0.002227402525022626 -3.810718496310983e-08 -8.223650205252397e-09 -3.810718496310983e-08 -0.005453728139400482" pbc="T T T"
Al       1.56429556       0.90314476       2.50490041        0       0.68448204       0.53670047       0.91071479      -0.00003377       0.00001997       0.00553192
Al      -0.00000156       1.80629224       5.01337791        1       0.31075784       0.39520501      -1.87833745       0.00003465      -0.00001854       0.00552368
N        1.56429556       0.90314476       4.41849749        2      -0.23293981      -0.79739853      -0.40745139      -0.00003652       0.00001916      -0.00552959
N       -0.00000156       1.80629224       1.91001999        3      -0.76230006      -0.13450696       1.37507406       0.00003565      -0.00002079      -0.00552580
4
Lattice="3.128588 0.0 0.0 -1.5642939988088433 2.709436998432005 0.0 0.0 0.0 5.016955" Properties=species:S:1:pos:R:3:spacegroup_kinds:I:1:momenta:R:3:forces:R:3 spacegroup="P 1" unit_cell=conventional occupancy="_JSON {\"0\": {\"Al\": 1}, \"1\": {\"Al\": 1}, \"2\": {\"N\": 1}, \"3\": {\"N\": 1}}" energy=-29.433595657348633 free_energy=-29.433595657348633 stress="-0.013773526065051556 -0.016446415334939957 0.012948763556778431 -0.016446415334939957 -0.023968582972884178 0.009969732724130154 0.012948763556778431 0.009969732724130154 -0.01205950416624546" pbc="T T T"
Al       1.60246141       0.92231283       2.54150848        0       0.57498215      -0.13492005       1.02882445      -1.31301320      -0.49033475      -0.87831378
Al       0.00328788       1.81111139       4.94718774        1      -0.44725799       0.00118047      -1.07867302      -0.30154148      -0.59423274       1.18011785
N        1.53678588       0.85870780       4.38099594        2       0.14052036      -0.46066719       0.20203879       0.28490835       0.67984545       1.25553703
N       -0.05228245       1.80432672       2.00436660        3      -0.26824454       0.59440681      -0.15219024       1.32964647       0.40472212      -1.55734110
4
Lattice="3.128588 0.0 0.0 -1.5642939988088433 2.709436998432005 0.0 0.0 0.0 5.016955" Properties=species:S:1:pos:R:3:spacegroup_kinds:I:1:momenta:R:3:forces:R:3 spacegroup="P 1" unit_cell=conventional occupancy="_JSON {\"0\": {\"Al\": 1}, \"1\": {\"Al\": 1}, \"2\": {\"N\": 1}, \"3\": {\"N\": 1}}" energy=-29.5672550201416 free_energy=-29.5672550201416 stress="0.012915870174765587 0.0017025935230776668 0.003579340875148773 0.0017025935230776668 -0.02585691027343273 -0.005369173362851143 0.003579340875148773 -0.005369173362851143 -0.011435338295996189" pbc="T T T"
Al       1.59598186       0.90138485       2.55101262        0      -0.85003980      -0.64755159      -0.41676328      -0.33522630       0.74370193      -1.26921153
Al      -0.01311799       1.79082857       4.96769659        1      -0.24557042      -0.74327799       1.65595809      -0.18280365      -0.17026787       1.21499538
N        1.52960409       0.86779353       4.41996344        2       0.16413102       0.60763593       0.63654598       0.31887749       0.39321458      -0.09056802
N       -0.00060097       1.87475190       1.90756520        3       0.93147920       0.78319370      -1.87574079       0.19915259      -0.96664882       0.14478377
4
Lattice="3.128588 0.0 0.0 -1.5642939988088433 2.709436998432005 0.0 0.0 0.0 5.016955" Properties=species:S:1:pos:R:3:spacegroup_kinds:I:1:momenta:R:3:forces:R:3 spacegroup="P 1" unit_cell=conventional occupancy="_JSON {\"0\": {\"Al\": 1}, \"1\": {\"Al\": 1}, \"2\": {\"N\": 1}, \"3\": {\"N\": 1}}" energy=-29.40627098083496 free_energy=-29.40627098083496 stress="0.010688877664506435 0.01649821735918522 -0.008164018392562866 0.01649821735918522 -0.009423316456377506 -0.015553964301943779 -0.008164018392562866 -0.015553964301943779 -0.06125418469309807" pbc="T T T"
Al       1.53423929       0.87298461       2.51007451        0      -1.60925379       0.09619223      -1.03262234       0.74608892       1.00298512       0.03482322
Al      -0.01349003       1.78470221       5.05709165        1       0.21561242      -0.04339741       1.72443221       0.02271265       0.40732977      -1.66436887
N        1.55208977       0.92225134       4.42203510        2       0.38659392       0.63935765      -0.93002948       0.04495749      -0.39009732      -0.56986165
N        0.09667393       1.88681817       1.81230438        3       1.00704744      -0.69215247       0.23821961      -0.81375915      -1.02021766       2.19940734
4
Lattice="3.128588 0.0 0.0 -1.5642939988088433 2.709436998432005 0.0 0.0 0.0 5.016955" Properties=species:S:1:pos:R:3:spacegroup_kinds:I:1:momenta:R:3:forces:R:3 spacegroup="P 1" unit_cell=conventional occupancy="_JSON {\"0\": {\"Al\": 1}, \"1\": {\"Al\": 1}, \"2\": {\"N\": 1}, \"3\": {\"N\": 1}}" energy=-29.201902389526367 free_energy=-29.201902389526367 stress="-0.02644115500152111 0.03815571591258049 -0.031382426619529724 0.03815571591258049 -0.00487762875854969 0.001543671591207385 -0.031382426619529724 0.001543671591207385 -0.05181993171572685" pbc="T T T"
Al       1.49382402       0.87740194       2.48150490        0      -0.08661648      -0.02748799       0.25595605       2.48428249      -0.46186697       1.22611630
Al      -0.02076736       1.79337853       5.08843294        1       0.00716724       0.60209076      -1.27068309       0.64723122       0.57433408      -2.36003995
N        1.60157224       0.96971684       4.33361318        2       0.49437286       0.53651024      -0.17473380      -0.53882408      -0.70145351       1.74608910
N        0.13924904       1.81421450       1.89535168        3      -0.41492363      -1.11111300       1.18946091      -2.59268975       0.58898622      -0.61216551
4
Lattice="3.128588 0.0 0.0 -1.5642939988088433 2.709436998432005 0.0 0.0 0.0 5.016955" Properties=species:S:1:pos:R:3:spacegroup_kinds:I:1:momenta:R:3:forces:R:3 spacegroup="P 1" unit_cell=conventional occupancy="_JSON {\"0\": {\"Al\": 1}, \"1\": {\"Al\": 1}, \"2\": {\"N\": 1}, \"3\": {\"N\": 1}}" energy=-29.574628829956055 free_energy=-29.574628829956055 stress="-0.023617981001734734 -0.014321409165859222 -0.011128061451017857 -0.014321409165859222 0.015029950067400932 -0.0028545381501317024 -0.011128061451017857 -0.0028545381501317024 -0.014440260827541351" pbc="T T T"
Al       1.53421962       0.88369268       2.53780585        0       1.55944059       0.36820813       1.55971055       0.29264262      -0.24000451      -0.91367394
Al      -0.00048006       1.82107765       4.98837340        1       1.01688582       0.86374295      -2.47525495       0.94369578       0.52251208       0.78486121
N        1.63583967       0.96584649       4.40663184        2      -0.31021935      -0.52489288       1.27117445      -1.15103841      -0.78906691       0.05688019
N       -0.01177526       1.75252282       1.90648729        3      -2.26610712      -0.70705819      -0.35563004      -0.08529998       0.50655925       0.07193278
4
Lattice="3.128588 0.0 0.0 -1.5642939988088433 2.709436998432005 0.0 0.0 0.0 5.016955" Properties=species:S:1:pos:R:3:spacegroup_kinds:I:1:momenta:R:3:forces:R:3 spacegroup="P 1" unit_cell=conventional occupancy="_JSON {\"0\": {\"Al\": 1}, \"1\": {\"Al\": 1}, \"2\": {\"N\": 1}, \"3\": {\"N\": 1}}" energy=-29.372072219848633 free_energy=-29.372072219848633 stress="-0.005629634018987417 -0.018719319254159927 0.01584952138364315 -0.018719319254159927 -0.03227292746305466 0.017212217673659325 0.01584952138364315 0.017212217673659325 -0.007298048585653305" pbc="T T T"
Al       1.57072834       0.88046439       2.56331977        0      -0.00039246      -0.37629491      -0.57844146      -1.34386599      -0.44065812      -1.50707722
Al       0.05055074       1.86456080       4.94968568        1       0.52727021       0.77034112       1.04960231      -0.49129164      -1.36433637       1.82584882
N        1.58204795       0.88176663       4.44992395        2      -0.27832275      -1.02263343      -0.55459286       0.15003869       1.16375983      -0.85894895
N       -0.12661086       1.75915459       1.88869864        3      -0.24855501       0.62858719       0.08343203       1.68511879       0.64123470       0.54017735
4
Lattice="3.128588 0.0 0.0 -1.5642939988088433 2.709436998432005 0.0 0.0 0.0 5.016955" Properties=species:S:1:pos:R:3:spacegroup_kinds:I:1:momenta:R:3:forces:R:3 spacegroup="P 1" unit_cell=conventional occupancy="_JSON {\"0\": {\"Al\": 1}, \"1\": {\"Al\": 1}, \"2\": {\"N\": 1}, \"3\": {\"N\": 1}}" energy=-29.596923828125 free_energy=-29.596923828125 stress="0.015976279973983765 -0.004506187047809362 0.0060186623595654964 -0.004506187047809362 -0.025499390438199043 -0.004597150254994631 0.0060186623595654964 -0.004597150254994631 -0.010013977997004986" pbc="T T T"
Al       1.53284806       0.86390065       2.51395075        0      -1.59464521      -0.16469611      -1.74991360      -0.27820823       0.89915866      -0.15420526
Al       0.06317842       1.83227865       5.00948379        1       0.38439917      -1.80666585       1.59449914      -0.58708173      -0.41271371       0.16725016
N        1.58572476       0.89623789       4.41422580        2       0.14193254       1.12964902      -0.09119162       0.25703925       0.38076437       0.00228145
N       -0.08152105       1.83862422       1.90381447        3       1.06831353       0.84171296       0.24660607       0.60825080      -0.86720908      -0.01532611
4
Lattice="3.128588 0.0 0.0 -1.5642939988088433 2.709436998432005 0.0 0.0 0.0 5.016955" Properties=species:S:1:pos:R:3:spacegroup_kinds:I:1:momenta:R:3:forces:R:3 spacegroup="P 1" unit_cell=conventional occupancy="_JSON {\"0\": {\"Al\": 1}, \"1\": {\"Al\": 1}, \"2\": {\"N\": 1}, \"3\": {\"N\": 1}}" energy=-29.462554931640625 free_energy=-29.462554931640625 stress="-0.005696979351341724 0.010849621146917343 -0.0039065987803041935 0.010849621146917343 -0.019133837893605232 -0.01270315796136856 -0.0039065987803041935 -0.01270315796136856 -0.011871280148625374" pbc="T T T"
Al       1.48347330       0.88264396       2.44527928        0      -0.30454477       1.01149571      -0.60004517       0.88393188       0.95768386       1.70776999
Al       0.06164407       1.77681261       5.07306069        1      -0.86715278      -0.75617371       0.43048943      -0.30080622       0.71655470      -1.72279930
N        1.61717714       0.94947182       4.40498427        2       0.38645864       0.04830036       0.18623267      -0.07233997      -0.67486137       0.48910666
N       -0.01486930       1.85626146       1.92266706        3       0.78523893      -0.30362237      -0.01667689      -0.51078582      -0.99937719      -0.47407752
4
Lattice="3.128588 0.0 0.0 -1.5642939988088433 2.709436998432005 0.0 0.0 0.0 5.016955" Properties=species:S:1:pos:R:3:spacegroup_kinds:I:1:momenta:R:3:forces:R:3 spacegroup="P 1" unit_cell=conventional occupancy="_JSON {\"0\": {\"Al\": 1}, \"1\": {\"Al\": 1}, \"2\": {\"N\": 1}, \"3\": {\"N\": 1}}" energy=-29.518749237060547 free_energy=-29.518749237060547 stress="-0.023370793089270592 0.006539852358400822 -0.016098137944936752 0.006539852358400822 0.006697576027363539 -0.0004822875198442489 -0.016098137944936752 -0.0004822875198442489 -0.02216113917529583" pbc="T T T"
Al       1.50607640       0.94974320       2.46463696        0       1.15921351       0.62635152       1.50689907       1.24247289      -0.60704845       1.15697265
Al       0.01335468       1.75088042       5.06242873        1      -0.91111983       0.14825247      -0.88962606       0.51474619       0.69610834      -1.43088889
N        1.62637959       0.90489615       4.42127858        2      -0.14223593      -0.64065035       0.21498410      -0.71771914      -0.51824278      -0.07984807
N        0.02538010       1.82158365       1.88963028        3      -0.10585779      -0.13395364      -0.83225709      -1.03950000       0.42918277       0.35376403
4
Lattice="3.128588 0.0 0.0 -1.5642939988088433 2.709436998432005 0.0 0.0 0.0 5.016955" Properties=species:S:1:pos:R:3:spacegroup_kinds:I:1:momenta:R:3:forces:R:3 spacegroup="P 1" unit_cell=conventional occupancy="_JSON {\"0\": {\"Al\": 1}, \"1\": {\"Al\": 1}, \"2\": {\"N\": 1}, \"3\": {\"N\": 1}}" energy=-29.605012893676758 free_energy=-29.605012893676758 stress="0.001595893525518477 -0.0067858826369047165 -0.003095304360613227 -0.0067858826369047165 0.00178069481626153 0.0017241851892322302 -0.003095304360613227 0.0017241851892322302 -0.023113828152418137" pbc="T T T"
Al       1.56693926       0.93861028       2.54470909        0       1.44875324      -0.98943878       1.48437385      -0.01659346      -0.29131514      -1.20300853
Al      -0.01304571       1.78057347       4.99752452        1       0.01689792       1.11024870      -1.70729954       0.38438481       0.02358323       0.50761735
N        1.58384200       0.87104970       4.42155577        2      -0.67927490      -0.02704833      -0.19037147      -0.39236593       0.15177828      -0.39793551
N        0.00122214       1.81989282       1.85992051        3      -0.78637632      -0.09376162       0.41329719       0.02457456       0.11595365       1.09332693
4
Lattice="3.128588 0.0 0.0 -1.5642939988088433 2.709436998432005 0.0 0.0 0.0 5.016955" Properties=species:S:1:pos:R:3:spacegroup_kinds:I:1:momenta:R:3:forces:R:3 spacegroup="P 1" unit_cell=conventional occupancy="_JSON {\"0\": {\"Al\": 1}, \"1\": {\"Al\": 1}, \"2\": {\"N\": 1}, \"3\": {\"N\": 1}}" energy=-29.470203399658203 free_energy=-29.470203399658203 stress="0.003203274216502905 -0.01780167780816555 0.011838417500257492 -0.01780167780816555 -0.041349075734615326 0.007359744049608707 0.011838417500257492 0.007359744049608707 -0.005160390865057707" pbc="T T T"
Al       1.62755629       0.89950075       2.54516752        0       1.04970808      -0.99981873      -0.80202926      -1.41064095       0.15933423      -0.91779405
Al      -0.00757060       1.81703571       4.95606288        1      -0.03757995       0.11959879      -0.16512759      -0.26242894      -0.84351444       1.41446030
N        1.52756230       0.85151209       4.42065481        2      -0.42752177       0.29023053      -0.07965818       0.31765866       0.98894638      -0.00115641
N       -0.06966661       1.84442117       1.93994535        3      -0.58460641       0.58998942       1.04681506       1.35541153      -0.30476612      -0.49550965
4
Lattice="3.128588 0.0 0.0 -1.5642939988088433 2.709436998432005 0.0 0.0 0.0 5.016955" Properties=species:S:1:pos:R:3:spacegroup_kinds:I:1:momenta:R:3:forces:R:3 spacegroup="P 1" unit_cell=conventional occupancy="_JSON {\"0\": {\"Al\": 1}, \"1\": {\"Al\": 1}, \"2\": {\"N\": 1}, \"3\": {\"N\": 1}}" energy=-29.452985763549805 free_energy=-29.452985763549805 stress="-0.013224780559539795 -0.02375008910894394 0.007911406457424164 -0.02375008910894394 -0.04793192818760872 -0.0073332516476511955 0.007911406457424164 -0.0073332516476511955 0.02863283082842827" pbc="T T T"
Al       1.63184044       0.85684028       2.46693548        0      -0.97589017      -0.55899508      -1.34838371      -1.39010596       1.11026347       1.17303538
Al      -0.02377748       1.82170283       4.98999602        1      -0.28018856       0.45883623       1.28013475      -0.08532377       0.08283266       0.34697703
N        1.52792697       0.92957750       4.44479001        2       0.11446496       0.97873143       0.08012654       0.22036037      -0.17398548       0.05598913
N       -0.04718872       1.83921499       2.00086012        3       1.14161374      -0.87857255      -0.01187753       1.25506914      -1.01911080      -1.57600117
4
Lattice="3.128588 0.0 0.0 -1.5642939988088433 2.709436998432005 0.0 0.0 0.0 5.016955" Properties=species:S:1:pos:R:3:spacegroup_kinds:I:1:momenta:R:3:forces:R:3 spacegroup="P 1" unit_cell=conventional occupancy="_JSON {\"0\": {\"Al\": 1}, \"1\": {\"Al\": 1}, \"2\": {\"N\": 1}, \"3\": {\"N\": 1}}" energy=-29.53631591796875 free_energy=-29.53631591796875 stress="-0.019857630133628845 0.013828943483531475 -0.005717441905289888 0.013828943483531475 -0.003164079040288925 -0.0016710003837943077 -0.005717441905289888 -0.0016710003837943077 -0.006260556168854237" pbc="T T T"
Al       1.56291510       0.86348346       2.43836895        0      -1.44558920       0.38889075       0.34074977       0.67286122       0.11609378       1.45909548
Al      -0.01834145       1.83613140       5.05736570        1       0.19731537      -0.00921536       1.04742055       0.06595295       0.15003127      -1.19267237
N        1.54726696       0.95741143       4.47045646        2      -0.01024001       0.05685019       0.14844124       0.09761329      -0.44420508      -0.65174699
N        0.05576967       1.77068662       1.90062727        3       1.25851381      -0.43652559      -1.53661156      -0.83642721       0.17808028       0.38532376
4
Lattice="3.128588 0.0 0.0 -1.5642939988088433 2.709436998432005 0.0 0.0 0.0 5.016955" Properties=species:S:1:pos:R:3:spacegroup_kinds:I:1:momenta:R:3:forces:R:3 spacegroup="P 1" unit_cell=conventional occupancy="_JSON {\"0\": {\"Al\": 1}, \"1\": {\"Al\": 1}, \"2\": {\"N\": 1}, \"3\": {\"N\": 1}}" energy=-29.5310001373291 free_energy=-29.5310001373291 stress="-0.018294164910912514 0.015707504004240036 -0.011607800610363483 0.015707504004240036 0.0031474458519369364 0.004605624359101057 -0.011607800610363483 0.004605624359101057 -0.01725837215781212" pbc="T T T"
Al       1.54701073       0.87273542       2.46070915        0       0.71855695      -0.11584385       0.49435415       1.07476687      -0.28505579       1.06925380
Al      -0.01761629       1.84389396       5.05391117        1       0.19346435       0.17720329      -0.69190240       0.23187402      -0.07941975      -1.16825116
N        1.56395350       0.94331122       4.45961405        2       0.32487448      -0.12409332      -0.51346235      -0.11546896      -0.20503174      -0.72920609
N        0.06831356       1.75176767       1.87546339        3      -1.23689580       0.06273390       0.71101062      -1.19117188       0.56950748       0.82820362
4
Lattice="3.128588 0.0 0.0 -1.5642939988088433 2.709436998432005 0.0 0.0 0.0 5.016955" Properties=species:S:1:pos:R:3:spacegroup_kinds:I:1:momenta:R:3:forces:R:3 spacegroup="P 1" unit_cell=conventional occupancy="_JSON {\"0\": {\"Al\": 1}, \"1\": {\"Al\": 1}, \"2\": {\"N\": 1}, \"3\": {\"N\": 1}}" energy=-29.61321258544922 free_energy=-29.61321258544922 stress="-0.008381499908864498 -0.004276658874005079 0.00549285626038909 -0.004276658874005079 -0.013936823233962059 0.001480432110838592 0.00549285626038909 0.001480432110838592 0.012475389987230301" pbc="T T T"
Al       1.57767908       0.87033376       2.48321565        0       0.42145960      -0.10085964       0.75449361      -0.50598711       0.14215454       0.64867544
Al       0.00878680       1.84488738       5.00616575        1       0.94842538       0.04829636      -0.67234604      -0.28191066      -0.37569630       0.05942933
N        1.54733736       0.91884318       4.41695259        2      -0.50233563      -0.06173835      -0.86681733       0.26756805       0.16352364       0.34766752
N       -0.02491941       1.77881442       1.96659674        3      -0.86754936       0.11430168       0.78466978       0.52032959       0.07001824      -1.05577230
4
Lattice="3.128588 0.0 0.0 -1.5642939988088433 2.709436998432005 0.0 0.0 0.0 5.016955" Properties=species:S:1:pos:R:3:spacegroup_kinds:I:1:momenta:R:3:forces:R:3 spacegroup="P 1" unit_cell=conventional occupancy="_JSON {\"0\": {\"Al\": 1}, \"1\": {\"Al\": 1}, \"2\": {\"N\": 1}, \"3\": {\"N\": 1}}" energy=-29.557836532592773 free_energy=-29.557836532592773 stress="-0.016363779082894325 -0.002947654342278838 0.012903900817036629 -0.002947654342278838 -0.006207703612744808 0.0015376497758552432 0.012903900817036629 0.0015376497758552432 -0.002715056762099266" pbc="T T T"
Al       1.59068816       0.88023429       2.52274588        0      -0.41625590       0.17887033       0.33160833      -0.90884519      -0.14031255      -0.36868215
Al       0.01872291       1.83477376       4.97781991        1       0.14973960      -0.20762994      -0.17578482      -0.72829574      -0.10046127       0.72653556
N        1.52039172       0.92489999       4.39464371        2       0.19754403       0.25939825       0.47781815       0.72475827      -0.09605148       0.71574020
N       -0.04216871       1.77342027       1.96745704        3       0.06897224      -0.23063861      -0.63364161       0.91238248       0.33682510      -1.07359385
4
Lattice="3.128588 0.0 0.0 -1.5642939988088433 2.709436998432005 0.0 0.0 0.0 5.016955" Properties=species:S:1:pos:R:3:spacegroup_kinds:I:1:momenta:R:3:forces:R:3 spacegroup="P 1" unit_cell=conventional occupancy="_JSON {\"0\": {\"Al\": 1}, \"1\": {\"Al\": 1}, \"2\": {\"N\": 1}, \"3\": {\"N\": 1}}" energy=-29.621110916137695 free_energy=-29.621110916137695 stress="-0.021500643342733383 0.005276395007967949 -0.0032674239482730627 0.005276395007967949 0.010657892562448978 0.0019249453907832503 -0.0032674239482730627 0.0019249453907832503 -0.0015896972035989165" pbc="T T T"
Al       1.54767650       0.89587761       2.50832860        0      -0.85810070       0.46896523      -1.00003113       0.39160377      -0.39029118      -0.15032795
Al       0.00665801       1.82067517       5.00342497        1      -0.72966922      -0.11082602       1.46536888      -0.00949558       0.22696824       0.34863174
N        1.57185933       0.94293295       4.45440724        2       0.62349821      -0.37686574       0.64593230      -0.01970097      -0.43335134      -0.83889973
N        0.01256029       1.75229423       1.88600529        3       0.96427169       0.01872655      -1.11127000      -0.36240724       0.59667468       0.64059597
4
Lattice="3.128588 0.0 0.0 -1.5642939988088433 2.709436998432005 0.0 0.0 0.0 5.016955" Properties=species:S:1:pos:R:3:spacegroup_kinds:I:1:momenta:R:3:forces:R:3 spacegroup="P 1" unit_cell=conventional occupancy="_JSON {\"0\": {\"Al\": 1}, \"1\": {\"Al\": 1}, \"2\": {\"N\": 1}, \"3\": {\"N\": 1}}" energy=-29.520854949951172 free_energy=-29.520854949951172 stress="-0.014047672040760517 0.011820976622402668 -0.01425558514893055 0.011820976622402668 -0.0056146965362131596 0.009361516684293747 -0.01425558514893055 0.009361516684293747 -0.01957101747393608" pbc="T T T"
Al       1.52999425       0.91403917       2.46474570        0       0.09545062      -0.23101227      -1.18071389       1.21875501      -0.63577431       0.99290127
Al      -0.00890654       1.82180734       5.05208970        1       0.31216916      -0.10747506       0.45537676       0.39472699      -0.38378629      -1.12710261
N        1.59437711       0.88605551       4.45928987        2      -0.04799041      -0.53350277      -0.20523369      -0.40810460       0.35579062      -0.79021698
N        0.05384454       1.77207218       1.87144998        3      -0.35962939       0.87199014       0.93057091      -1.20537734       0.66377014       0.92441851
4
Lattice="3.128588 0.0 0.0 -1.5642939988088433 2.709436998432005 0.0 0.0 0.0 5.016955" Properties=species:S:1:pos:R:3:spacegroup_kinds:I:1:momenta:R:3:forces:R:3 spacegroup="P 1" unit_cell=conventional occupancy="_JSON {\"0\": {\"Al\": 1}, \"1\": {\"Al\": 1}, \"2\": {\"N\": 1}, \"3\": {\"N\": 1}}" energy=-29.61878776550293 free_energy=-29.61878776550293 stress="0.010117818601429462 -0.0018220279598608613 -0.001872990862466395 -0.0018220279598608613 -0.02478310652077198 0.004591147881001234 -0.001872990862466395 0.004591147881001234 2.6492336473893374e-05" pbc="T T T"
Al       1.53818031       0.90928017       2.47247630        0       0.23228662      -0.27447297       1.41733373       0.21201146       0.18702343       0.85530704
Al       0.01802691       1.81430743       5.03506517        1       0.60360807      -0.42930294      -1.11140870       0.03760238      -0.69444209      -0.55142462
N        1.59518012       0.85128049       4.42414642        2       0.09084612       0.02420720      -0.77345469      -0.19470344       0.84070647       0.01228204
N       -0.01452980       1.83034438       1.92467366        3      -0.92674086       0.67956876       0.46752969      -0.05491047      -0.33328781      -0.31616446
4
Lattice="3.128588 0.0 0.0 -1.5642939988088433 2.709436998432005 0.0 0.0 0.0 5.016955" Properties=species:S:1:pos:R:3:spacegroup_kinds:I:1:momenta:R:3:forces:R:3 spacegroup="P 1" unit_cell=conventional occupancy="_JSON {\"0\": {\"Al\": 1}, \"1\": {\"Al\": 1}, \"2\": {\"N\": 1}, \"3\": {\"N\": 1}}" energy=-29.62373924255371 free_energy=-29.62373924255371 stress="0.004300182685256004 -0.008672753348946571 0.002882009372115135 -0.008672753348946571 -0.006943925749510527 -0.004434458911418915 0.002882009372115135 -0.004434458911418915 -0.0148389907553792" pbc="T T T"
Al       1.54321207       0.89379622       2.53645983        0      -0.00705392      -0.41529133       0.79445018      -0.25250262       0.39302939      -0.87834537
Al       0.03580898       1.79893952       4.98957806        1       0.09337896      -0.29525071      -0.61191926      -0.16601153       0.14058204       0.62745523
N        1.59619756       0.90645096       4.40111848        2      -0.02189808       1.09350628       0.27120896      -0.08899771      -0.09593697       0.34911662
N       -0.05911266       1.83464212       1.91219266        3      -0.06442702      -0.38296423      -0.45373986       0.50751185      -0.43767440      -0.09822655
