4
Lattice="3.128588 0.0 0.0 -1.5642939988088433 2.709436998432005 0.0 0.0 0.0 5.016955" Properties=species:S:1:pos:R:3:spacegroup_kinds:I:1:forces:R:3 spacegroup="P 1" unit_cell=conventional occupancy="_JSON {\"0\": {\"Al\": 1}, \"1\": {\"Al\": 1}, \"2\": {\"N\": 1}, \"3\": {\"N\": 1}}" energy=-29.673717498779297 free_energy=-29.673717498779297 stress="-0.002225347328931093 -1.2794578196917428e-06 -8.223650205252397e-09 -1.2794578196917428e-06 -0.002227402525022626 -3.810718496310983e-08 -8.223650205252397e-09 -3.810718496310983e-08 -0.005453728139400482" pbc="T T T"
Al       1.56429556       0.90314476       2.50490041        0      -0.00003377       0.00001997       0.00553192
Al      -0.00000156       1.80629224       5.01337791        1       0.00003465      -0.00001854       0.00552368
N        1.56429556       0.90314476       4.41849749        2      -0.00003652       0.00001916      -0.00552959
N       -0.00000156       1.80629224       1.91001999        3       0.00003565      -0.00002079      -0.00552580
