13
Lattice="7.26870274 0.0 0.0 3.634351370000001 6.294881225397555 0.0 3.634351370000001 2.0982937417991856 5.934870934989993" Properties=species:S:1:pos:R:3:spacegroup_kinds:I:1:momenta:R:3:forces:R:3 spacegroup="P 1" unit_cell=conventional occupancy="_JSON {\"0\": {\"Li\": 1}, \"1\": {\"Li\": 1}, \"2\": {\"Li\": 1}, \"3\": {\"Li\": 1}, \"4\": {\"Li\": 1}, \"5\": {\"Li\": 1}, \"6\": {\"P\": 1}, \"7\": {\"S\": 1}, \"8\": {\"S\": 1}, \"9\": {\"S\": 1}, \"10\": {\"S\": 1}, \"11\": {\"S\": 1}, \"12\": {\"Cl\": 1}}" energy=-53.32857894897461 free_energy=-53.32857894897461 stress="-0.002139897784218192 0.0038964925333857536 0.0009777606464922428 0.0038964925333857536 -0.0013764179311692715 0.0007711175712756813 0.0009777606464922428 0.0007711175712756813 -0.00013276214303914458" pbc="T T T"
Li       9.45384599       7.23123950       2.96556036        0       0.44080690      -0.19485460      -0.49205275      -0.25372395      -0.02647924      -0.26349875
Li      12.66337477       5.53301008       5.77508169        1       0.29415661       0.72334959       0.28657699      -0.02786473       0.10563297       0.04993539
Li       9.20255680       5.37934821       5.77912136        2      -0.24935408       0.23353388       0.07548873       0.07465343       0.13563083       0.12518370
Li      12.64889959       7.23755095       3.14576389        3      -0.13279753      -0.08460956       0.24935316      -0.11020748      -0.08203307       0.11948158
Li      10.90600420       4.34765060       3.17034743        4      -0.10433233      -0.29647364       0.13469119      -0.21857023       0.02818535       0.11073210
Li      11.08260971       8.25730479       5.78460886        5       0.50230447      -0.07685877      -0.03141603       0.01535580      -0.12266190       0.02140349
P        7.25419468       4.16207549       2.95885548        6       0.53728451      -0.89147552      -0.14383715      -0.05380096       0.68146724       0.08422930
S        7.30677211       6.12096516       2.28750816        7       0.30383532       0.70503104      -0.06306730       0.12124437      -0.12537235      -0.05341280
S        8.90031391       3.18107393       2.26729784        8      -0.59031106      -0.53319831      -0.10740216       0.23518810      -0.09258597      -0.03653102
S        5.52939898       3.26119795       2.32023657        9      -0.85344103       0.88398755       0.44207712       0.16054860      -0.25377512      -0.20779750
S        7.26080407       4.24584763       5.01954105       10       0.23867993       0.12406720       0.17242308      -0.02413496      -0.27939022      -0.05044408
S       10.88067831       6.29072355       4.46330064       11       0.15733328       0.07607465      -0.27568019       0.40874642       0.13269989       0.05199397
Cl      -0.00238710      -0.02932407      -0.00905102       12      -0.54416499      -0.66857353      -0.24715471      -0.32743445      -0.10131837       0.04872473
