13
Lattice="7.26870274 0.0 0.0 3.634351370000001 6.294881225397555 0.0 3.634351370000001 2.0982937417991856 5.934870934989993" Properties=species:S:1:pos:R:3:spacegroup_kinds:I:1:momenta:R:3:forces:R:3 spacegroup="P 1" unit_cell=conventional occupancy="_JSON {\"0\": {\"Li\": 1}, \"1\": {\"Li\": 1}, \"2\": {\"Li\": 1}, \"3\": {\"Li\": 1}, \"4\": {\"Li\": 1}, \"5\": {\"Li\": 1}, \"6\": {\"P\": 1}, \"7\": {\"S\": 1}, \"8\": {\"S\": 1}, \"9\": {\"S\": 1}, \"10\": {\"S\": 1}, \"11\": {\"S\": 1}, \"12\": {\"Cl\": 1}}" energy=-53.3634147644043 free_energy=-53.3634147644043 stress="-0.0007941970252431929 -2.2104939034761628e-07 -1.6541896741273376e-07 -2.2104939034761628e-07 -0.0007939509814605117 -9.922783306137717e-08 -1.6541896741273376e-07 -9.922783306137717e-08 -0.0007939148345030844" pbc="T T T"
Li       9.25387995       7.24703237       3.10460814        0       0.00000000       0.00000000       0.00000000       0.00422587      -0.00243460       0.00344798
Li      12.55222827       5.34273008       5.79769826        1       0.00000000       0.00000000       0.00000000      -0.00421084       0.00243278      -0.00344111
Li       9.25387995       5.34273008       5.79769826        2       0.00000000       0.00000000       0.00000000       0.00422470       0.00243897      -0.00344676
Li      12.55222827       7.24703237       3.10460814        3       0.00000000       0.00000000       0.00000000      -0.00421149      -0.00243063       0.00344072
Li      10.90305411       4.39057894       3.10460814        4       0.00000000       0.00000000       0.00000000       0.00000248       0.00487633       0.00344812
Li      10.90305411       8.19918351       5.79769826        5       0.00000000       0.00000000       0.00000000       0.00000193      -0.00486290      -0.00344105
P        7.26870274       4.19658748       2.96743547        6       0.00000000       0.00000000       0.00000000       0.00008551       0.00004614       0.00003607
S        7.26870637       6.13578650       2.28182731        7       0.00000000       0.00000000       0.00000000      -0.00001852      -0.01090954       0.00384783
S        8.94810016       3.22699113       2.28182731        8       0.00000000       0.00000000       0.00000000      -0.00945800       0.00543992       0.00384701
S        5.58931258       3.22699113       2.28182731        9       0.00000000       0.00000000       0.00000000       0.00937770       0.00541223       0.00383027
S        7.26870637       4.19658958       5.02426588       10       0.00000000       0.00000000       0.00000000      -0.00001905      -0.00000997      -0.01156890
S       10.90305411       6.29488123       4.45115320       11       0.00000000       0.00000000       0.00000000      -0.00000139      -0.00000041      -0.00000075
Cl       0.00000000       0.00000000       0.00000000       12       0.00000000       0.00000000       0.00000000       0.00000109       0.00000163       0.00000063
13
Lattice="7.26870274 0.0 0.0 3.634351370000001 6.294881225397555 0.0 3.634351370000001 2.0982937417991856 5.934870934989993" Properties=species:S:1:pos:R:3:spacegroup_kinds:I:1:momenta:R:3:forces:R:3 spacegroup="P 1" unit_cell=conventional occupancy="_JSON {\"0\": {\"Li\": 1}, \"1\": {\"Li\": 1}, \"2\": {\"Li\": 1}, \"3\": {\"Li\": 1}, \"4\": {\"Li\": 1}, \"5\": {\"Li\": 1}, \"6\": {\"P\": 1}, \"7\": {\"S\": 1}, \"8\": {\"S\": 1}, \"9\": {\"S\": 1}, \"10\": {\"S\": 1}, \"11\": {\"S\": 1}, \"12\": {\"Cl\": 1}}" energy=-53.3634147644043 free_energy=-53.3634147644043 stress="-0.0008265611249953508 8.983881343738176e-06 -2.4537484932807274e-05 8.983881343738176e-06 -0.000916972232516855 2.009805575653445e-05 -2.4537484932807274e-05 2.009805575653445e-05 -0.0007596565410494804" pbc="T T T"
Li       9.25623414       7.24502960       3.10248277        0       0.11921912      -0.08108165      -0.08456719       0.00431489       0.00175997      -0.00006257
Li      12.55241965       5.34365410       5.79749221        1       0.02869553       0.06203935      -0.02832681      -0.00088355       0.00067394       0.00017746
Li       9.25369187       5.34406009       5.79705804        2       0.01093786       0.02177967      -0.05524137       0.00018863       0.00086114      -0.00112562
Li      12.55275802       7.24657121       3.10469670        3       0.10177417      -0.02646145       0.01937341      -0.00192779      -0.00105158       0.00204355
Li      10.90262392       4.39226626       3.10517632        4       0.01570614       0.10072614       0.03984404      -0.00114848      -0.00282129      -0.00148882
Li      10.90258462       8.19802070       5.79712840        5      -0.01534725       0.04451669       0.00468008      -0.00064451       0.00501121       0.00029687
P        7.26772002       4.19657598       2.96660932        6      -0.23977633      -0.05149535      -0.11582860       0.01225832      -0.01138562       0.02084083
S        7.27005110       6.13518024       2.28256144        7       0.25771568      -0.10001608       0.18042284      -0.00592605       0.00289515      -0.00815584
S        8.94752876       3.22651751       2.28214484        8      -0.06999995      -0.15855360       0.07584794      -0.00918788       0.00696811       0.00217417
S        5.58854609       3.22700861       2.28208936        9      -0.20695600      -0.07662560       0.00520536       0.00380550       0.00305712      -0.00086917
S        7.26821821       4.19732809       5.02406094       10      -0.11539987       0.26506554      -0.11524546       0.00069771      -0.00546847      -0.01611312
S       10.90378706       6.29499331       4.45127772       11       0.16822619       0.02788060       0.09273096      -0.00098278       0.00049151      -0.00055474
Cl       0.00030395       0.00006787       0.00001140       12      -0.05479529      -0.02777426      -0.01889520      -0.00056402      -0.00099116       0.00283709
13
Lattice="7.26870274 0.0 0.0 3.634351370000001 6.294881225397555 0.0 3.634351370000001 2.0982937417991856 5.934870934989993" Properties=species:S:1:pos:R:3:spacegroup_kinds:I:1:momenta:R:3:forces:R:3 spacegroup="P 1" unit_cell=conventional occupancy="_JSON {\"0\": {\"Li\": 1}, \"1\": {\"Li\": 1}, \"2\": {\"Li\": 1}, \"3\": {\"Li\": 1}, \"4\": {\"Li\": 1}, \"5\": {\"Li\": 1}, \"6\": {\"P\": 1}, \"7\": {\"S\": 1}, \"8\": {\"S\": 1}, \"9\": {\"S\": 1}, \"10\": {\"S\": 1}, \"11\": {\"S\": 1}, \"12\": {\"Cl\": 1}}" energy=-53.36294174194336 free_energy=-53.36294174194336 stress="-0.000704337318893522 3.859595017274842e-05 -6.978381861699745e-05 3.859595017274842e-05 -0.001130337012000382 0.00020493274496402591 -6.978381861699745e-05 0.00020493274496402591 -0.000624345033429563" pbc="T T T"
Li       9.26073397       7.24324685       3.09969676        0       0.09996645      -0.04035555      -0.07330215       0.00351457       0.00268916      -0.00472614
Li      12.55542558       5.34686470       5.79471633        1       0.16234229       0.12474487      -0.14938384      -0.00176767       0.00406742       0.01623557
Li       9.25563853       5.34650448       5.79467261        2       0.04570829       0.07880431      -0.05894843      -0.01147933      -0.00475108       0.00994357
Li      12.55758328       7.24554340       3.10423103        3       0.17017382      -0.02830111      -0.02924733      -0.01416391       0.00277809       0.00922661
Li      10.90462918       4.39515081       3.10877734        4       0.09499353       0.04627464       0.08753684      -0.01520856      -0.02599949      -0.01661067
Li      10.90186918       8.20152719       5.79611008        5      -0.02695514       0.08709164      -0.06205230      -0.00161902      -0.00241728       0.00028831
P        7.26425810       4.19715133       2.96612084        6      -0.56547254       0.20951472      -0.05411907       0.07545975      -0.06556126       0.02954919
S        7.27242013       6.13373080       2.28378537        7       0.38195793      -0.22794300       0.24148809      -0.01334649       0.03261924      -0.02805887
S        8.94614192       3.22449715       2.28151884        8      -0.26405173      -0.37827739      -0.25810054      -0.03054851       0.03444600       0.01683960
S        5.58702614       3.22562805       2.28188320        9      -0.10460028      -0.27908141       0.02695278      -0.00591246       0.01108936      -0.00311480
S        7.26768175       4.19975883       5.02449777       10      -0.08063703       0.44998147       0.15617997       0.00192722      -0.00926362      -0.02906322
S       10.90423352       6.29486220       4.45193938       11       0.02152185       0.07279756       0.02151083       0.01518006       0.02285731      -0.00450294
Cl       0.00082352      -0.00003220       0.00021270       12       0.06505255      -0.11525075       0.15148513      -0.00203566      -0.00255390       0.00399386
13
Lattice="7.26870274 0.0 0.0 3.634351370000001 6.294881225397555 0.0 3.634351370000001 2.0982937417991856 5.934870934989993" Properties=species:S:1:pos:R:3:spacegroup_kinds:I:1:momenta:R:3:forces:R:3 spacegroup="P 1" unit_cell=conventional occupancy="_JSON {\"0\": {\"Li\": 1}, \"1\": {\"Li\": 1}, \"2\": {\"Li\": 1}, \"3\": {\"Li\": 1}, \"4\": {\"Li\": 1}, \"5\": {\"Li\": 1}, \"6\": {\"P\": 1}, \"7\": {\"S\": 1}, \"8\": {\"S\": 1}, \"9\": {\"S\": 1}, \"10\": {\"S\": 1}, \"11\": {\"S\": 1}, \"12\": {\"Cl\": 1}}" energy=-53.3610725402832 free_energy=-53.3610725402832 stress="-0.0005740586784668267 6.433965609176084e-05 -0.00018146334332413971 6.433965609176084e-05 -0.0014999819686636329 0.0005068000173196197 -0.00018146334332413971 0.0005068000173196197 -0.00025675640790723264" pbc="T T T"
Li       9.26604001       7.24397758       3.09618286        0       0.13429363       0.06069510      -0.11963674       0.00344302      -0.00787564      -0.00613308
Li      12.56062393       5.35128639       5.78908512        1       0.08876921       0.12683203      -0.13294398      -0.01074150       0.01243932       0.03731286
Li       9.25705073       5.34847323       5.79323646        2       0.01801334       0.03173713       0.01143519      -0.01821654      -0.00796139       0.01921571
Li      12.56352878       7.24437793       3.10418180        3       0.12128639      -0.04838503       0.00973202      -0.02943324       0.00755233       0.01669211
Li      10.90846421       4.39674447       3.11040511        4       0.10930904       0.04286261       0.01095157      -0.03987312      -0.04219538      -0.02826986
Li      10.90419501       8.20553048       5.79361366        5       0.09131932       0.11672138      -0.05043411      -0.00132049      -0.00996935       0.00271368
P        7.26028743       4.19852162       2.96554651        6      -0.36016560       0.13263078      -0.12592124       0.17102346      -0.14753203       0.05905524
S        7.27535404       6.13107956       2.28489708        7       0.47124978      -0.42618122       0.10856271      -0.02210800       0.08749427      -0.05593443
S        8.94402678       3.22135573       2.27810218        8      -0.29891589      -0.42301503      -0.56290071      -0.06530246       0.07360075       0.04941333
S        5.58597126       3.22385871       2.28309254        9      -0.18867157      -0.10034130       0.26199071      -0.02464789       0.01956849      -0.01237414
S        7.26654428       4.20402626       5.02668321       10      -0.19494643       0.60396024       0.32271727       0.01011822      -0.02330166      -0.07168402
S       10.90387520       6.29429057       4.45246756       11      -0.09193495      -0.16372651       0.25050584       0.03443463       0.04449522      -0.01432944
Cl       0.00116280       0.00002293       0.00147827       12       0.10039373       0.04620982       0.01594146      -0.00737610      -0.00631495       0.00432195
13
Lattice="7.26870274 0.0 0.0 3.634351370000001 6.294881225397555 0.0 3.634351370000001 2.0982937417991856 5.934870934989993" Properties=species:S:1:pos:R:3:spacegroup_kinds:I:1:momenta:R:3:forces:R:3 spacegroup="P 1" unit_cell=conventional occupancy="_JSON {\"0\": {\"Li\": 1}, \"1\": {\"Li\": 1}, \"2\": {\"Li\": 1}, \"3\": {\"Li\": 1}, \"4\": {\"Li\": 1}, \"5\": {\"Li\": 1}, \"6\": {\"P\": 1}, \"7\": {\"S\": 1}, \"8\": {\"S\": 1}, \"9\": {\"S\": 1}, \"10\": {\"S\": 1}, \"11\": {\"S\": 1}, \"12\": {\"Cl\": 1}}" energy=-53.357330322265625 free_energy=-53.357330322265625 stress="-0.00040271703619509935 -6.458529969677329e-05 -0.0002981744473800063 -6.458529969677329e-05 -0.0019169037695974112 0.0008311280398629606 -0.0002981744473800063 0.0008311280398629606 0.00010350821685278788" pbc="T T T"
Li       9.27128717       7.24797193       3.09108298        0       0.19553219       0.15187662      -0.18690485       0.00830985      -0.02932018       0.00103915
Li      12.56619546       5.35403755       5.78486930        1       0.23463616       0.07696617      -0.12617481      -0.02394654       0.02174753       0.05258522
Li       9.26059658       5.35027115       5.79377453        2       0.11958197       0.02287629      -0.00969034      -0.03276251      -0.01646716       0.02286482
Li      12.56800703       7.24194628       3.10650426        3       0.13975935      -0.13801100       0.15006520      -0.03657781       0.01728582       0.01935011
Li      10.91084964       4.39817847       3.11076916        4       0.09535306       0.01977208       0.10890190      -0.06437931      -0.05200423      -0.03451157
Li      10.90617047       8.20950222       5.79382187        5       0.11243699       0.09806505       0.02815026      -0.00153100      -0.02165107      -0.00482205
P        7.25573694       4.19988390       2.96470585        6      -0.59390875       0.06328122      -0.16548564       0.30028960      -0.23181443       0.10101452
S        7.27861687       6.12769933       2.28547864        7       0.34930287      -0.44718493      -0.08156347      -0.03322177       0.15676743      -0.07708825
S        8.94283275       3.21797639       2.27372886        8      -0.17025608      -0.49131075      -0.58596766      -0.12126908       0.11136275       0.09343889
S        5.58457186       3.22442521       2.28421289        9      -0.29948390       0.26145558       0.12622247      -0.05641268       0.01538540      -0.02651432
S        7.26540044       4.20767921       5.02913579       10      -0.14901020       0.56962038       0.32675200       0.02374106      -0.03630289      -0.12286262
S       10.90307827       6.29256172       4.45451018       11      -0.15202912      -0.23205867       0.29122531       0.05099378       0.07382984      -0.03039007
Cl       0.00172680       0.00045675       0.00163825       12       0.11808546       0.04465193       0.12446961      -0.01323354      -0.00881880       0.00589610
13
Lattice="7.26870274 0.0 0.0 3.634351370000001 6.294881225397555 0.0 3.634351370000001 2.0982937417991856 5.934870934989993" Properties=species:S:1:pos:R:3:spacegroup_kinds:I:1:momenta:R:3:forces:R:3 spacegroup="P 1" unit_cell=conventional occupancy="_JSON {\"0\": {\"Li\": 1}, \"1\": {\"Li\": 1}, \"2\": {\"Li\": 1}, \"3\": {\"Li\": 1}, \"4\": {\"Li\": 1}, \"5\": {\"Li\": 1}, \"6\": {\"P\": 1}, \"7\": {\"S\": 1}, \"8\": {\"S\": 1}, \"9\": {\"S\": 1}, \"10\": {\"S\": 1}, \"11\": {\"S\": 1}, \"12\": {\"Cl\": 1}}" energy=-53.35105895996094 free_energy=-53.35105895996094 stress="-0.0001878167240647599 -9.05702036106959e-05 -0.00030693813459947705 -9.05702036106959e-05 -0.0023616477847099304 0.0011765145463868976 -0.00030693813459947705 0.0011765145463868976 0.00044716408592648804" pbc="T T T"
Li       9.28029359       7.25301352       3.08305853        0       0.23766543       0.16016169      -0.29131073       0.00808476      -0.05590783       0.00352542
Li      12.57597475       5.36185821       5.77949225        1       0.31313375       0.27921581      -0.17811112      -0.04162885       0.03609233       0.07323498
Li       9.26605764       5.35125282       5.79221444        2       0.18259078       0.03042077      -0.10471952      -0.05530081      -0.02985528       0.03888123
Li      12.57742142       7.23922822       3.11175596        3       0.35305825       0.03515417       0.10815397      -0.05371524       0.02747346       0.02835987
Li      10.91267760       4.39814586       3.11375121        4      -0.04473624       0.00170344       0.06065711      -0.08960378      -0.06233143      -0.03979655
Li      10.91404207       8.21366893       5.79440926        5       0.29805546       0.20636838       0.06782227      -0.00046327      -0.03255984      -0.01631348
P        7.25083158       4.20108007       2.96381214        6      -0.67260269       0.13360005      -0.06532536       0.42375314      -0.32322499       0.13570000
S        7.28151559       6.12362395       2.28463618        7       0.39545896      -0.60666274      -0.00178579      -0.03196235       0.22988245      -0.09265943
S        8.94104074       3.21321918       2.26974242        8      -0.28502471      -0.75733454      -0.48752174      -0.17806433       0.15252855       0.13490520
S        5.58165076       3.22564331       2.28537571        9      -0.36396807       0.13703221       0.12138961      -0.07983056       0.01441188      -0.04333965
S        7.26380900       4.21200294       5.03132547       10      -0.21374392       0.62599212       0.19956967       0.04261328      -0.05212570      -0.17206754
S       10.90138585       6.29081294       4.45724364       11      -0.21780926      -0.25565445       0.37660489       0.08663958       0.10893417      -0.05496728
Cl       0.00210881       0.00109308       0.00256259       12       0.01792227       0.01000307       0.19457673      -0.03052159      -0.01331774       0.00453725
13
Lattice="7.26870274 0.0 0.0 3.634351370000001 6.294881225397555 0.0 3.634351370000001 2.0982937417991856 5.934870934989993" Properties=species:S:1:pos:R:3:spacegroup_kinds:I:1:momenta:R:3:forces:R:3 spacegroup="P 1" unit_cell=conventional occupancy="_JSON {\"0\": {\"Li\": 1}, \"1\": {\"Li\": 1}, \"2\": {\"Li\": 1}, \"3\": {\"Li\": 1}, \"4\": {\"Li\": 1}, \"5\": {\"Li\": 1}, \"6\": {\"P\": 1}, \"7\": {\"S\": 1}, \"8\": {\"S\": 1}, \"9\": {\"S\": 1}, \"10\": {\"S\": 1}, \"11\": {\"S\": 1}, \"12\": {\"Cl\": 1}}" energy=-53.34244918823242 free_energy=-53.34244918823242 stress="-0.00010040881170425564 -6.825352465966716e-05 -0.00028603393002413213 -6.825352465966716e-05 -0.0030884200241416693 0.0016709736082702875 -0.00028603393002413213 0.0016709736082702875 0.0006112103001214564" pbc="T T T"
Li       9.29015249       7.25959720       3.07257004        0       0.31903855       0.17188267      -0.29084293       0.01194682      -0.08949256       0.01027404
Li      12.58516050       5.37134284       5.77223004        1       0.23415171       0.27189706      -0.20480512      -0.05664929       0.04960107       0.09947577
Li       9.27159438       5.35324687       5.78707072        2       0.12056299       0.02499994      -0.13697619      -0.08691267      -0.04547808       0.07238058
Li      12.58825705       7.24166172       3.11719459        3       0.28400800       0.12649497       0.12648968      -0.07563388       0.01921100       0.04723371
Li      10.91130635       4.39822476       3.11538259        4       0.00479431       0.00587594       0.04897952      -0.10301131      -0.07004312      -0.04556125
Li      10.92560017       8.22219618       5.79446348        5       0.34121331       0.28842956      -0.06397067       0.00104012      -0.06000732      -0.02683246
P        7.24663870       4.20223801       2.96319286        6      -0.46988110       0.16983712      -0.06201990       0.51663882      -0.42393535       0.15860513
S        7.28474444       6.11865262       2.28575163        7       0.43935535      -0.58071439       0.13524587      -0.02939581       0.32679632      -0.12571901
S        8.93823642       3.20792802       2.26683153        8      -0.33678586      -0.56752537      -0.20354716      -0.21495363       0.19237289       0.15570429
S        5.57924950       3.22633838       2.28749177        9      -0.36631022       0.02481342       0.39955912      -0.10801008       0.02154303      -0.07302362
S        7.26157028       4.21684874       5.03176064       10      -0.27714968       0.60496142       0.02164935       0.06629714      -0.06410234      -0.18641159
S       10.89894958       6.28896861       4.45964700       11      -0.45690952      -0.25166245       0.21288758       0.13210756       0.16185389      -0.08901893
Cl       0.00283158       0.00060342       0.00338875       12       0.16391217      -0.28928989       0.01735086      -0.05346376      -0.01831954       0.00289327
13
Lattice="7.26870274 0.0 0.0 3.634351370000001 6.294881225397555 0.0 3.634351370000001 2.0982937417991856 5.934870934989993" Properties=species:S:1:pos:R:3:spacegroup_kinds:I:1:momenta:R:3:forces:R:3 spacegroup="P 1" unit_cell=conventional occupancy="_JSON {\"0\": {\"Li\": 1}, \"1\": {\"Li\": 1}, \"2\": {\"Li\": 1}, \"3\": {\"Li\": 1}, \"4\": {\"Li\": 1}, \"5\": {\"Li\": 1}, \"6\": {\"P\": 1}, \"7\": {\"S\": 1}, \"8\": {\"S\": 1}, \"9\": {\"S\": 1}, \"10\": {\"S\": 1}, \"11\": {\"S\": 1}, \"12\": {\"Cl\": 1}}" energy=-53.33322525024414 free_energy=-53.33322525024414 stress="-8.89405346242711e-05 0.00011968024773523211 -0.00026017907657660544 0.00011968024773523211 -0.003725307295098901 0.002041393890976906 -0.00026017907657660544 0.002041393890976906 0.0005838356446474791" pbc="T T T"
Li       9.30176506       7.26404781       3.06287926        0       0.33250548       0.07851210      -0.29586677       0.00585660      -0.11590551       0.00986706
Li      12.59306956       5.38315637       5.76413230        1       0.21216924       0.32664643      -0.19567746      -0.06277593       0.05944550       0.13103096
Li       9.27381303       5.35355986       5.78138320        2       0.00470222      -0.03604996      -0.20336212      -0.11034147      -0.05366198       0.10854607
Li      12.59871852       7.24651456       3.12226289        3       0.38557973       0.13274862       0.10977285      -0.09346988       0.00389565       0.06653784
Li      10.91440178       4.39734584       3.11874457        4       0.17139201      -0.03467943       0.20009152      -0.12892631      -0.07392117      -0.04688202
Li      10.94049601       8.23186074       5.79154608        5       0.57033533       0.18982149      -0.11581905       0.00228464      -0.09169185      -0.02416006
P        7.24266579       4.20255734       2.96340828        6      -0.64268197      -0.07431807      -0.02296484       0.59090650      -0.47946995       0.14291212
S        7.28856122       6.11473774       2.28663724        7       0.52327577      -0.40147982       0.15399999      -0.03266867       0.39621368      -0.15269911
S        8.93531367       3.20443165       2.26547199        8      -0.43012254      -0.45738959      -0.11555502      -0.23477656       0.21929395       0.16146976
S        5.57547854       3.22736577       2.29112241        9      -0.61842464       0.26848576       0.41536038      -0.11878449       0.01907441      -0.10801584
S        7.25946239       4.22083955       5.03068236       10      -0.21311604       0.48249267      -0.24290694       0.07745809      -0.07074612      -0.16635150
S       10.89510540       6.28725890       4.46240031       11      -0.56505347      -0.09095948       0.38556987       0.18568404       0.21037848      -0.12279765
Cl       0.00447142      -0.00178131       0.00234983       12       0.26943887      -0.38383073      -0.07264242      -0.08044650      -0.02290511       0.00054232
13
Lattice="7.26870274 0.0 0.0 3.634351370000001 6.294881225397555 0.0 3.634351370000001 2.0982937417991856 5.934870934989993" Properties=species:S:1:pos:R:3:spacegroup_kinds:I:1:momenta:R:3:forces:R:3 spacegroup="P 1" unit_cell=conventional occupancy="_JSON {\"0\": {\"Li\": 1}, \"1\": {\"Li\": 1}, \"2\": {\"Li\": 1}, \"3\": {\"Li\": 1}, \"4\": {\"Li\": 1}, \"5\": {\"Li\": 1}, \"6\": {\"P\": 1}, \"7\": {\"S\": 1}, \"8\": {\"S\": 1}, \"9\": {\"S\": 1}, \"10\": {\"S\": 1}, \"11\": {\"S\": 1}, \"12\": {\"Cl\": 1}}" energy=-53.325313568115234 free_energy=-53.325313568115234 stress="-0.0002314012817805633 0.00042278962791897357 -0.0002054308570222929 0.00042278962791897357 -0.004208878614008427 0.0021588336676359177 -0.0002054308570222929 0.0021588336676359177 0.0004254965460859239" pbc="T T T"
Li       9.31466014       7.26588165       3.05061398        0       0.34129386       0.01184308      -0.37669335       0.00066953      -0.13531196       0.00471399
Li      12.59972851       5.39499087       5.75788928        1       0.20244037       0.38161425      -0.17674012      -0.06370220       0.06628267       0.15520981
Li       9.27251522       5.35234499       5.77525924        2      -0.06366015       0.00525595      -0.11776306      -0.11784982      -0.05114830       0.14052080
Li      12.61173488       7.24912557       3.12481893        3       0.34518396       0.00318599       0.05755884      -0.11955543      -0.00631822       0.08829369
Li      10.91848190       4.39695173       3.12587223        4       0.04949716      -0.00132998       0.15955038      -0.15751404      -0.08342561      -0.05033863
Li      10.95795771       8.23809306       5.78846579        5       0.48935922       0.11946182      -0.06186278       0.00465917      -0.10764051      -0.01761828
P        7.23914402       4.20119132       2.96372775        6      -0.37206519      -0.26290183       0.16127313       0.64037734      -0.48244226       0.11541753
S        7.29248915       6.11151386       2.28725672        7       0.47762163      -0.17258769       0.15531523      -0.03082378       0.43243653      -0.17508659
S        8.93129840       3.20201073       2.26471849        8      -0.50683733      -0.17722088      -0.03371502      -0.22722942       0.22672518       0.15922867
S        5.57054429       3.22950564       2.29529768        9      -0.63005631       0.31328155       0.54698455      -0.12720114       0.00613302      -0.14331767
S        7.25839765       4.22481993       5.02859897       10      -0.07201630       0.41131051      -0.37020931       0.07406169      -0.08680201      -0.12757058
S       10.89179545       6.28682259       4.46484245       11      -0.42389789      -0.06970672       0.26713356       0.23394006       0.24641114      -0.14934286
Cl       0.00575640      -0.00474170       0.00162223       12       0.16313696      -0.56220607      -0.21083205      -0.10983203      -0.02489958      -0.00010980
13
Lattice="7.26870274 0.0 0.0 3.634351370000001 6.294881225397555 0.0 3.634351370000001 2.0982937417991856 5.934870934989993" Properties=species:S:1:pos:R:3:spacegroup_kinds:I:1:momenta:R:3:forces:R:3 spacegroup="P 1" unit_cell=conventional occupancy="_JSON {\"0\": {\"Li\": 1}, \"1\": {\"Li\": 1}, \"2\": {\"Li\": 1}, \"3\": {\"Li\": 1}, \"4\": {\"Li\": 1}, \"5\": {\"Li\": 1}, \"6\": {\"P\": 1}, \"7\": {\"S\": 1}, \"8\": {\"S\": 1}, \"9\": {\"S\": 1}, \"10\": {\"S\": 1}, \"11\": {\"S\": 1}, \"12\": {\"Cl\": 1}}" energy=-53.32086181640625 free_energy=-53.32086181640625 stress="-0.0005666710785590112 0.0007356397691182792 -0.00017685876809991896 0.0007356397691182792 -0.0043386551551520824 0.002087165368720889 -0.00017685876809991896 0.002087165368720889 0.00013172831677366048" pbc="T T T"
Li       9.32807524       7.26550218       3.03745857        0       0.37325107      -0.09465565      -0.32656613      -0.00705098      -0.14761609      -0.00408066
Li      12.60700834       5.40966934       5.75239910        1       0.15789762       0.45143865      -0.11643700      -0.06113264       0.07214446       0.17206348
Li       9.26814500       5.35296461       5.77154542        2      -0.16761447       0.05127144      -0.09703876      -0.11698117      -0.04120195       0.16128573
Li      12.62308621       7.24813067       3.12592693        3       0.33206073       0.00488298      -0.03653935      -0.14489591      -0.00707726       0.10502917
Li      10.91875607       4.39647921       3.13295611        4      -0.06911927      -0.03763789       0.26055585      -0.17265674      -0.09219384      -0.05106224
Li      10.97449200       8.24262665       5.78889723        5       0.45069945       0.10495424       0.08920574       0.00587890      -0.11676993      -0.01817058
P        7.23679329       4.19773012       2.96392759        6      -0.22627570      -0.55786449      -0.19889496       0.66985554      -0.40871400       0.08039639
S        7.29627456       6.11045521       2.28872716        7       0.48972533      -0.04891559       0.24353271      -0.02745531       0.41382414      -0.18329072
S        8.92717231       3.20064875       2.26433972        8      -0.56077537      -0.21645943       0.05662200      -0.19989690       0.20901416       0.14462626
S        5.56656495       3.23144228       2.29991669        9      -0.49337410       0.25258697       0.53910561      -0.14979151      -0.01237179      -0.17745744
S        7.25805981       4.22848329       5.02545830       10      -0.05208261       0.53779989      -0.44100123       0.06480559      -0.10854319      -0.07177953
S       10.88759025       6.28729162       4.46677035       11      -0.37145424      -0.03370081       0.27432589       0.27793190       0.26980907      -0.16117202
Cl       0.00716176      -0.00864754       0.00008824       12       0.13706154      -0.41370032      -0.24687035      -0.13861063      -0.03030372       0.00361224
13