13
Lattice="7.26870274 0.0 0.0 3.634351370000001 6.294881225397555 0.0 3.634351370000001 2.0982937417991856 5.934870934989993" Properties=species:S:1:pos:R:3:spacegroup_kinds:I:1:forces:R:3 spacegroup="P 1" unit_cell=conventional occupancy="_JSON {\"0\": {\"Li\": 1}, \"1\": {\"Li\": 1}, \"2\": {\"Li\": 1}, \"3\": {\"Li\": 1}, \"4\": {\"Li\": 1}, \"5\": {\"Li\": 1}, \"6\": {\"P\": 1}, \"7\": {\"S\": 1}, \"8\": {\"S\": 1}, \"9\": {\"S\": 1}, \"10\": {\"S\": 1}, \"11\": {\"S\": 1}, \"12\": {\"Cl\": 1}}" energy=-53.3634147644043 free_energy=-53.3634147644043 stress="-0.0007941970252431929 -2.2104939034761628e-07 -1.6541896741273376e-07 -2.2104939034761628e-07 -0.0007939509814605117 -9.922783306137717e-08 -1.6541896741273376e-07 -9.922783306137717e-08 -0.0007939148345030844" pbc="T T T"
Li       9.25387995       7.24703237       3.10460814        0       0.00422587      -0.00243460       0.00344798
Li      12.55222827       5.34273008       5.79769826        1      -0.00421084       0.00243278      -0.00344111
Li       9.25387995       5.34273008       5.79769826        2       0.00422470       0.00243897      -0.00344676
Li      12.55222827       7.24703237       3.10460814        3      -0.00421149      -0.00243063       0.00344072
Li      10.90305411       4.39057894       3.10460814        4       0.00000248       0.00487633       0.00344812
Li      10.90305411       8.19918351       5.79769826        5       0.00000193      -0.00486290      -0.00344105
P        7.26870274       4.19658748       2.96743547        6       0.00008551       0.00004614       0.00003607
S        7.26870637       6.13578650       2.28182731        7      -0.00001852      -0.01090954       0.00384783
S        8.94810016       3.22699113       2.28182731        8      -0.00945800       0.00543992       0.00384701
S        5.58931258       3.22699113       2.28182731        9       0.00937770       0.00541223       0.00383027
S        7.26870637       4.19658958       5.02426588       10      -0.00001905      -0.00000997      -0.01156890
S       10.90305411       6.29488123       4.45115320       11      -0.00000139      -0.00000041      -0.00000075
Cl       0.00000000       0.00000000       0.00000000       12       0.00000109       0.00000163       0.00000063
