4
Lattice="3.128588 0.0 0.0 -1.5642939988088433 2.709436998432005 0.0 0.0 0.0 5.016955" Properties=species:S:1:pos:R:3:spacegroup_kinds:I:1:forces:R:3 spacegroup="P 1" unit_cell=conventional occupancy="_JSON {\"0\": {\"Al\": 1}, \"1\": {\"Al\": 1}, \"2\": {\"N\": 1}, \"3\": {\"N\": 1}}" energy=-29.673717498779297 free_energy=-29.673717498779297 stress="-0.0022253128699958324 -1.443861037841998e-06 -9.195856520705092e-09 -1.443861037841998e-06 -0.002227514050900936 -2.0410650947155773e-08 -9.195856520705092e-09 -2.0410650947155773e-08 -0.005453711375594139" pbc="T T T"
Al       1.56429556       0.90314476       2.50490041        0      -0.00003537       0.00002074       0.00553245
Al      -0.00000156       1.80629224       5.01337791        1       0.00003465      -0.00001882       0.00552404
N        1.56429556       0.90314476       4.41849749        2      -0.00003607       0.00001931      -0.00553083
N       -0.00000156       1.80629224       1.91001999        3       0.00003687      -0.00002140      -0.00552565
