13
Lattice="7.26870274 0.0 0.0 3.634351370000001 6.294881225397555 0.0 3.634351370000001 2.0982937417991856 5.934870934989993" Properties=species:S:1:pos:R:3:spacegroup_kinds:I:1:forces:R:3 spacegroup="P 1" unit_cell=conventional occupancy="_JSON {\"0\": {\"Li\": 1}, \"1\": {\"Li\": 1}, \"2\": {\"Li\": 1}, \"3\": {\"Li\": 1}, \"4\": {\"Li\": 1}, \"5\": {\"Li\": 1}, \"6\": {\"P\": 1}, \"7\": {\"S\": 1}, \"8\": {\"S\": 1}, \"9\": {\"S\": 1}, \"10\": {\"S\": 1}, \"11\": {\"S\": 1}, \"12\": {\"Cl\": 1}}" energy=-53.3634147644043 free_energy=-53.3634147644043 stress="-0.000794192950706929 -2.3615272937149712e-07 -1.7202387425641064e-07 -2.3615272937149712e-07 -0.0007939437637105584 -1.033679097872664e-07 -1.7202387425641064e-07 -1.033679097872664e-07 -0.0007939221104606986" pbc="T T T"
Li       9.25387995       7.24703237       3.10460814        0       0.00422513      -0.00243429       0.00344790
Li      12.55222827       5.34273008       5.79769826        1      -0.00421009       0.00243277      -0.00344072
Li       9.25387995       5.34273008       5.79769826        2       0.00422512       0.00243972      -0.00344734
Li      12.55222827       7.24703237       3.10460814        3      -0.00421227      -0.00243123       0.00344117
Li      10.90305411       4.39057894       3.10460814        4       0.00000244       0.00487664       0.00344855
Li      10.90305411       8.19918351       5.79769826        5       0.00000186      -0.00486329      -0.00344145
P        7.26870274       4.19658748       2.96743547        6       0.00008594       0.00004628       0.00003652
S        7.26870637       6.13578650       2.28182731        7      -0.00001864      -0.01091021       0.00384812
S        8.94810016       3.22699113       2.28182731        8      -0.00945782       0.00544012       0.00384737
S        5.58931258       3.22699113       2.28182731        9       0.00937758       0.00541271       0.00382976
S        7.26870637       4.19658958       5.02426588       10      -0.00001914      -0.00000931      -0.01157013
S       10.90305411       6.29488123       4.45115320       11      -0.00000161      -0.00000041      -0.00000080
Cl       0.00000000       0.00000000       0.00000000       12       0.00000154       0.00000060       0.00000107
