4
Lattice="3.128588 0.0 0.0 -1.5642939988088433 2.709436998432005 0.0 0.0 0.0 5.016955" Properties=species:S:1:pos:R:3:spacegroup_kinds:I:1:momenta:R:3:forces:R:3 spacegroup="P 1" unit_cell=conventional occupancy="_JSON {\"0\": {\"Al\": 1}, \"1\": {\"Al\": 1}, \"2\": {\"N\": 1}, \"3\": {\"N\": 1}}" energy=-29.62374496459961 free_energy=-29.62374496459961 stress="0.004300391301512718 -0.008672570809721947 0.0028819588478654623 -0.008672570809721947 -0.006943733897060156 -0.004434613510966301 0.0028819588478654623 -0.004434613510966301 -0.014839187264442444" pbc="T T T"
Al       1.54321200       0.89379622       2.53645983        0      -0.00705505      -0.41529115       0.79445056      -0.25249952       0.39303029      -0.87834406
Al       0.03580902       1.79893951       4.98957807        1       0.09337915      -0.29525156      -0.61192023      -0.16601333       0.14058292       0.62745154
N        1.59619754       0.90645095       4.40111848        2      -0.02189795       1.09350687       0.27120754      -0.08899532      -0.09593929       0.34910983
N       -0.05911257       1.83464208       1.91219263        3      -0.06442614      -0.38296419      -0.45373791       0.50750804      -0.43767405      -0.09821759
