4
Lattice="3.128588 0.0 0.0 -1.5642939988088433 2.709436998432005 0.0 0.0 0.0 5.016955" Properties=species:S:1:pos:R:3:spacegroup_kinds:I:1:momenta:R:3:forces:R:3 spacegroup="P 1" unit_cell=conventional occupancy="_JSON {\"0\": {\"Al\": 1}, \"1\": {\"Al\": 1}, \"2\": {\"N\": 1}, \"3\": {\"N\": 1}}" energy=-29.67371940612793 free_energy=-29.67371940612793 stress="-0.0022254865616559982 -1.2850829307353706e-06 -2.1111111081495437e-08 -1.2850829307353706e-06 -0.0022274209186434746 1.18283107752859e-08 -2.1111111081495437e-08 1.18283107752859e-08 -0.005453707650303841" pbc="T T T"
Al       1.56429556       0.90314476       2.50490041        0       0.68448204       0.53670047       0.91071479      -0.00003423       0.00001875       0.00553186
Al      -0.00000156       1.80629224       5.01337791        1       0.31075784       0.39520501      -1.87833745       0.00003368      -0.00002027       0.00552383
N        1.56429556       0.90314476       4.41849749        2      -0.23293981      -0.79739853      -0.40745139      -0.00003560       0.00002101      -0.00553080
N       -0.00000156       1.80629224       1.91001999        3      -0.76230006      -0.13450696       1.37507406       0.00003604      -0.00001948      -0.00552503
4
Lattice="3.128588 0.0 0.0 -1.5642939988088433 2.709436998432005 0.0 0.0 0.0 5.016955" Properties=species:S:1:pos:R:3:spacegroup_kinds:I:1:momenta:R:3:forces:R:3 spacegroup="P 1" unit_cell=conventional occupancy="_JSON {\"0\": {\"Al\": 1}, \"1\": {\"Al\": 1}, \"2\": {\"N\": 1}, \"3\": {\"N\": 1}}" energy=-29.43359375 free_energy=-29.43359375 stress="-0.013773475773632526 -0.016446338966488838 0.012948807328939438 -0.016446338966488838 -0.023968694731593132 0.009969735518097878 0.012948807328939438 0.009969735518097878 -0.01205935887992382" pbc="T T T"
Al       1.60246141       0.92231284       2.54150849        0       0.57498196      -0.13492003       1.02882497      -1.31301236      -0.49033517      -0.87831253
Al       0.00328789       1.81111139       4.94718774        1      -0.44725780       0.00118064      -1.07867332      -0.30154151      -0.59423220       1.18011749
N        1.53678587       0.85870780       4.38099594        2       0.14052015      -0.46066738       0.20203847       0.28490758       0.67984498       1.25553703
N       -0.05228245       1.80432671       2.00436660        3      -0.26824434       0.59440676      -0.15219021       1.32964635       0.40472275      -1.55734229
4
Lattice="3.128588 0.0 0.0 -1.5642939988088433 2.709436998432005 0.0 0.0 0.0 5.016955" Properties=species:S:1:pos:R:3:spacegroup_kinds:I:1:momenta:R:3:forces:R:3 spacegroup="P 1" unit_cell=conventional occupancy="_JSON {\"0\": {\"Al\": 1}, \"1\": {\"Al\": 1}, \"2\": {\"N\": 1}, \"3\": {\"N\": 1}}" energy=-29.5672550201416 free_energy=-29.5672550201416 stress="0.012915941886603832 0.001702505862340331 0.0035793755669146776 0.001702505862340331 -0.025856876745820045 -0.0053691565990448 0.0035793755669146776 -0.0053691565990448 -0.011435254476964474" pbc="T T T"
Al       1.59598186       0.90138485       2.55101265        0      -0.85003964      -0.64755179      -0.41676302      -0.33522788       0.74370486      -1.26921296
Al      -0.01311799       1.79082858       4.96769657        1      -0.24557046      -0.74327802       1.65595790      -0.18280277      -0.17026788       1.21499705
N        1.52960408       0.86779350       4.41996340        2       0.16413090       0.60763594       0.63654565       0.31887692       0.39321423      -0.09056878
N       -0.00060095       1.87475191       1.90756521        3       0.93147916       0.78319390      -1.87574059       0.19915363      -0.96665120       0.14478475
4
Lattice="3.128588 0.0 0.0 -1.5642939988088433 2.709436998432005 0.0 0.0 0.0 5.016955" Properties=species:S:1:pos:R:3:spacegroup_kinds:I:1:momenta:R:3:forces:R:3 spacegroup="P 1" unit_cell=conventional occupancy="_JSON {\"0\": {\"Al\": 1}, \"1\": {\"Al\": 1}, \"2\": {\"N\": 1}, \"3\": {\"N\": 1}}" energy=-29.406274795532227 free_energy=-29.406274795532227 stress="0.01068890281021595 0.016498077660799026 -0.008164008148014545 0.016498077660799026 -0.009423126466572285 -0.015554006211459637 -0.008164008148014545 -0.015554006211459637 -0.06125413998961449" pbc="T T T"
Al       1.53423929       0.87298461       2.51007452        0      -1.60925373       0.09619232      -1.03262296       0.74608743       1.00298584       0.03482281
Al      -0.01349004       1.78470221       5.05709165        1       0.21561211      -0.04339787       1.72443277       0.02271279       0.40732992      -1.66436851
N        1.55208975       0.92225132       4.42203507        2       0.38659401       0.63935800      -0.93002915       0.04495723      -0.39009812      -0.56986153
N        0.09667396       1.88681818       1.81230438        3       1.00704759      -0.69215242       0.23821936      -0.81375730      -1.02021766       2.19940734
4
Lattice="3.128588 0.0 0.0 -1.5642939988088433 2.709436998432005 0.0 0.0 0.0 5.016955" Properties=species:S:1:pos:R:3:spacegroup_kinds:I:1:momenta:R:3:forces:R:3 spacegroup="P 1" unit_cell=conventional occupancy="_JSON {\"0\": {\"Al\": 1}, \"1\": {\"Al\": 1}, \"2\": {\"N\": 1}, \"3\": {\"N\": 1}}" energy=-29.201902389526367 free_energy=-29.201902389526367 stress="-0.02644103206694126 0.03815562650561333 -0.031382426619529724 0.03815562650561333 -0.0048775458708405495 0.0015437462134286761 -0.031382426619529724 0.0015437462134286761 -0.05181972682476044" pbc="T T T"
Al       1.49382403       0.87740194       2.48150489        0      -0.08661646      -0.02748759       0.25595522       2.48428202      -0.46186772       1.22611642
Al      -0.02076738       1.79337852       5.08843294        1       0.00716735       0.60209074      -1.27068287       0.64723313       0.57433462      -2.36003971
N        1.60157223       0.96971683       4.33361322        2       0.49437254       0.53651013      -0.17473358      -0.53882647      -0.70145416       1.74608779
N        0.13924905       1.81421452       1.89535165        3      -0.41492345      -1.11111331       1.18946122      -2.59268904       0.58898705      -0.61216468
4
Lattice="3.128588 0.0 0.0 -1.5642939988088433 2.709436998432005 0.0 0.0 0.0 5.016955" Properties=species:S:1:pos:R:3:spacegroup_kinds:I:1:momenta:R:3:forces:R:3 spacegroup="P 1" unit_cell=conventional occupancy="_JSON {\"0\": {\"Al\": 1}, \"1\": {\"Al\": 1}, \"2\": {\"N\": 1}, \"3\": {\"N\": 1}}" energy=-29.574626922607422 free_energy=-29.574626922607422 stress="-0.02361822873353958 -0.014321363531053066 -0.011127923615276814 -0.014321363531053066 0.01503001432865858 -0.0028546229004859924 -0.011127923615276814 -0.0028546229004859924 -0.01444043405354023" pbc="T T T"
Al       1.53421963       0.88369272       2.53780582        0       1.55944048       0.36820868       1.55971059       0.29264164      -0.24000525      -0.91367781
Al      -0.00048008       1.82107764       4.98837340        1       1.01688574       0.86374296      -2.47525487       0.94369584       0.52251571       0.78486532
N        1.63583965       0.96584647       4.40663185        2      -0.31021926      -0.52489303       1.27117384      -1.15103889      -0.78907204       0.05687874
N       -0.01177521       1.75252278       1.90648731        3      -2.26610700      -0.70705862      -0.35562965      -0.08529875       0.50656176       0.07193348
4
Lattice="3.128588 0.0 0.0 -1.5642939988088433 2.709436998432005 0.0 0.0 0.0 5.016955" Properties=species:S:1:pos:R:3:spacegroup_kinds:I:1:momenta:R:3:forces:R:3 spacegroup="P 1" unit_cell=conventional occupancy="_JSON {\"0\": {\"Al\": 1}, \"1\": {\"Al\": 1}, \"2\": {\"N\": 1}, \"3\": {\"N\": 1}}" energy=-29.372072219848633 free_energy=-29.372072219848633 stress="-0.00562980817630887 -0.018719300627708435 0.015849484130740166 -0.018719300627708435 -0.03227310627698898 0.01721223071217537 0.015849484130740166 0.01721223071217537 -0.007298160810023546" pbc="T T T"
Al       1.57072835       0.88046443       2.56331976        0      -0.00039284      -0.37629564      -0.57844107      -1.34386539      -0.44065827      -1.50707793
Al       0.05055071       1.86456079       4.94968568        1       0.52727026       0.77034148       1.04960250      -0.49129015      -1.36433649       1.82584929
N        1.58204797       0.88176659       4.44992391        2      -0.27832259      -1.02263381      -0.55459306       0.15003766       1.16376090      -0.85894972
N       -0.12661083       1.75915457       1.88869866        3      -0.24855492       0.62858795       0.08343152       1.68511784       0.64123398       0.54017812
4
Lattice="3.128588 0.0 0.0 -1.5642939988088433 2.709436998432005 0.0 0.0 0.0 5.016955" Properties=species:S:1:pos:R:3:spacegroup_kinds:I:1:momenta:R:3:forces:R:3 spacegroup="P 1" unit_cell=conventional occupancy="_JSON {\"0\": {\"Al\": 1}, \"1\": {\"Al\": 1}, \"2\": {\"N\": 1}, \"3\": {\"N\": 1}}" energy=-29.596923828125 free_energy=-29.596923828125 stress="0.015976641327142715 -0.00450599379837513 0.006018670275807381 -0.00450599379837513 -0.025499148294329643 -0.004597116261720657 0.006018670275807381 -0.004597116261720657 -0.01001385785639286" pbc="T T T"
Al       1.53284806       0.86390065       2.51395075        0      -1.59464504      -0.16469667      -1.74991378      -0.27820736       0.89916122      -0.15420610
Al       0.06317841       1.83227864       5.00948381        1       0.38439998      -1.80666619       1.59449976      -0.58708537      -0.41271725       0.16725115
N        1.58572475       0.89623785       4.41422574        2       0.14193199       1.12964949      -0.09119157       0.25704244       0.38076699       0.00228155
N       -0.08152103       1.83862425       1.90381444        3       1.06831300       0.84171331       0.24660551       0.60825044      -0.86721087      -0.01532678
4
Lattice="3.128588 0.0 0.0 -1.5642939988088433 2.709436998432005 0.0 0.0 0.0 5.016955" Properties=species:S:1:pos:R:3:spacegroup_kinds:I:1:momenta:R:3:forces:R:3 spacegroup="P 1" unit_cell=conventional occupancy="_JSON {\"0\": {\"Al\": 1}, \"1\": {\"Al\": 1}, \"2\": {\"N\": 1}, \"3\": {\"N\": 1}}" energy=-29.462553024291992 free_energy=-29.462553024291992 stress="-0.005697046406567097 0.010849444195628166 -0.003906648606061935 0.010849444195628166 -0.019133657217025757 -0.012703183107078075 -0.003906648606061935 -0.012703183107078075 -0.011871324852108955" pbc="T T T"
Al       1.48347330       0.88264396       2.44527927        0      -0.30454500       1.01149579      -0.60004557       0.88393199       0.95768380       1.70776892
Al       0.06164409       1.77681258       5.07306073        1      -0.86715276      -0.75617428       0.43048956      -0.30080560       0.71655339      -1.72279811
N        1.61717711       0.94947184       4.40498426        2       0.38645901       0.04830125       0.18623300      -0.07234032      -0.67485988       0.48910666
N       -0.01486932       1.85626148       1.92266697        3       0.78523870      -0.30362276      -0.01667704      -0.51078606      -0.99937719      -0.47407740
4
Lattice="3.128588 0.0 0.0 -1.5642939988088433 2.709436998432005 0.0 0.0 0.0 5.016955" Properties=species:S:1:pos:R:3:spacegroup_kinds:I:1:momenta:R:3:forces:R:3 spacegroup="P 1" unit_cell=conventional occupancy="_JSON {\"0\": {\"Al\": 1}, \"1\": {\"Al\": 1}, \"2\": {\"N\": 1}, \"3\": {\"N\": 1}}" energy=-29.518749237060547 free_energy=-29.518749237060547 stress="-0.02337087318301201 0.006539999041706324 -0.01609826646745205 0.006539999041706324 0.006697263102978468 -0.00048239543684758246 -0.01609826646745205 -0.00048239543684758246 -0.02216128446161747" pbc="T T T"
Al       1.50607638       0.94974321       2.46463695        0       1.15921310       0.62635202       1.50689942       1.24247622      -0.60704476       1.15697312
Al       0.01335469       1.75088038       5.06242875        1      -0.91111980       0.14825286      -0.88962652       0.51474744       0.69610465      -1.43088913
N        1.62637960       0.90489621       4.42127855        2      -0.14223568      -0.64065070       0.21498339      -0.71771896      -0.51824057      -0.07984828
N        0.02538007       1.82158362       1.88963023        3      -0.10585761      -0.13395416      -0.83225627      -1.03950429       0.42918107       0.35376394
4
Lattice="3.128588 0.0 0.0 -1.5642939988088433 2.709436998432005 0.0 0.0 0.0 5.016955" Properties=species:S:1:pos:R:3:spacegroup_kinds:I:1:momenta:R:3:forces:R:3 spacegroup="P 1" unit_cell=conventional occupancy="_JSON {\"0\": {\"Al\": 1}, \"1\": {\"Al\": 1}, \"2\": {\"N\": 1}, \"3\": {\"N\": 1}}" energy=-29.60500717163086 free_energy=-29.60500717163086 stress="0.0015957364812493324 -0.006785903591662645 -0.003095458960160613 -0.006785903591662645 0.0017804758390411735 0.0017243340844288468 -0.003095458960160613 0.0017243340844288468 -0.023113610222935677" pbc="T T T"
Al       1.56693924       0.93861031       2.54470909        0       1.44875304      -0.98943867       1.48437379      -0.01659461      -0.29131612      -1.20300591
Al      -0.01304569       1.78057346       4.99752453        1       0.01689840       1.11024992      -1.70729994       0.38439006       0.02358174       0.50760311
N        1.58384201       0.87104968       4.42155568        2      -0.67927513      -0.02704972      -0.19037154      -0.39237154       0.15177971      -0.39792347
N        0.00122212       1.81989278       1.85992054        3      -0.78637630      -0.09376152       0.41329774       0.02457629       0.11595463       1.09332633
4
Lattice="3.128588 0.0 0.0 -1.5642939988088433 2.709436998432005 0.0 0.0 0.0 5.016955" Properties=species:S:1:pos:R:3:spacegroup_kinds:I:1:momenta:R:3:forces:R:3 spacegroup="P 1" unit_cell=conventional occupancy="_JSON {\"0\": {\"Al\": 1}, \"1\": {\"Al\": 1}, \"2\": {\"N\": 1}, \"3\": {\"N\": 1}}" energy=-29.470205307006836 free_energy=-29.470205307006836 stress="0.003202769672498107 -0.017801349982619286 0.011838458478450775 -0.017801349982619286 -0.041349079459905624 0.007359929848462343 0.011838458478450775 0.007359929848462343 -0.005160127300769091" pbc="T T T"
Al       1.62755626       0.89950079       2.54516752        0       1.04970761      -0.99981848      -0.80202919      -1.41064763       0.15933274      -0.91779244
Al      -0.00757055       1.81703572       4.95606284        1      -0.03757960       0.11959778      -0.16512810      -0.26242945      -0.84351909       1.41445851
N        1.52756229       0.85151202       4.42065483        2      -0.42752207       0.29023119      -0.07965681       0.31766251       0.98894942      -0.00115507
N       -0.06966664       1.84442112       1.93994534        3      -0.58460594       0.58998953       1.04681414       1.35541439      -0.30476314      -0.49551105
4
Lattice="3.128588 0.0 0.0 -1.5642939988088433 2.709436998432005 0.0 0.0 0.0 5.016955" Properties=species:S:1:pos:R:3:spacegroup_kinds:I:1:momenta:R:3:forces:R:3 spacegroup="P 1" unit_cell=conventional occupancy="_JSON {\"0\": {\"Al\": 1}, \"1\": {\"Al\": 1}, \"2\": {\"N\": 1}, \"3\": {\"N\": 1}}" energy=-29.452987670898438 free_energy=-29.452987670898438 stress="-0.013225077651441097 -0.02375015988945961 0.00791155081242323 -0.02375015988945961 -0.04793199524283409 -0.007333321962505579 0.00791155081242323 -0.007333321962505579 0.028632953763008118" pbc="T T T"
Al       1.63184037       0.85684030       2.46693549        0      -0.97589025      -0.55899556      -1.34838406      -1.39009893       1.11026263       1.17304015
Al      -0.02377743       1.82170278       4.98999598        1      -0.28018875       0.45883511       1.28013524      -0.08533181       0.08283644       0.34697285
N        1.52792697       0.92957753       4.44479007        2       0.11446543       0.97873237       0.08012571       0.22036669      -0.17398983       0.05598511
N       -0.04718869       1.83921501       2.00086008        3       1.14161356      -0.87857195      -0.01187679       1.25506401      -1.01910937      -1.57599807
4
Lattice="3.128588 0.0 0.0 -1.5642939988088433 2.709436998432005 0.0 0.0 0.0 5.016955" Properties=species:S:1:pos:R:3:spacegroup_kinds:I:1:momenta:R:3:forces:R:3 spacegroup="P 1" unit_cell=conventional occupancy="_JSON {\"0\": {\"Al\": 1}, \"1\": {\"Al\": 1}, \"2\": {\"N\": 1}, \"3\": {\"N\": 1}}" energy=-29.536317825317383 free_energy=-29.536317825317383 stress="-0.019857307896018028 0.0138289425522089 -0.005717343185096979 0.0138289425522089 -0.003164266236126423 -0.0016709696501493454 -0.005717343185096979 -0.0016709696501493454 -0.006260410416871309" pbc="T T T"
Al       1.56291507       0.86348349       2.43836894        0      -1.44558762       0.38889103       0.34074914       0.67285722       0.11609474       1.45909595
Al      -0.01834144       1.83613134       5.05736568        1       0.19731455      -0.00921507       1.04742149       0.06595153       0.15003666      -1.19267046
N        1.54726703       0.95741148       4.47045642        2      -0.01023938       0.05684981       0.14844012       0.09761386      -0.44420987      -0.65174460
N        0.05576963       1.77068663       1.90062732        3       1.25851247      -0.43652583      -1.53661069      -0.83642268       0.17807811       0.38531914
4
Lattice="3.128588 0.0 0.0 -1.5642939988088433 2.709436998432005 0.0 0.0 0.0 5.016955" Properties=species:S:1:pos:R:3:spacegroup_kinds:I:1:momenta:R:3:forces:R:3 spacegroup="P 1" unit_cell=conventional occupancy="_JSON {\"0\": {\"Al\": 1}, \"1\": {\"Al\": 1}, \"2\": {\"N\": 1}, \"3\": {\"N\": 1}}" energy=-29.5310001373291 free_energy=-29.5310001373291 stress="-0.0182940810918808 0.01570751704275608 -0.011607716791331768 0.01570751704275608 0.003147861920297146 0.004605697002261877 -0.011607716791331768 0.004605697002261877 -0.0172588974237442" pbc="T T T"
Al       1.54701076       0.87273546       2.46070911        0       0.71855748      -0.11584367       0.49435359       1.07476783      -0.28505704       1.06925356
Al      -0.01761628       1.84389393       5.05391120        1       0.19346447       0.17720438      -0.69190099       0.23187616      -0.07941987      -1.16824985
N        1.56395356       0.94331119       4.45961400        2       0.32487405      -0.12409441      -0.51346167      -0.11547076      -0.20503245      -0.72920310
N        0.06831344       1.75176766       1.87546340        3      -1.23689598       0.06273362       0.71100920      -1.19117308       0.56950945       0.82819903
4
Lattice="3.128588 0.0 0.0 -1.5642939988088433 2.709436998432005 0.0 0.0 0.0 5.016955" Properties=species:S:1:pos:R:3:spacegroup_kinds:I:1:momenta:R:3:forces:R:3 spacegroup="P 1" unit_cell=conventional occupancy="_JSON {\"0\": {\"Al\": 1}, \"1\": {\"Al\": 1}, \"2\": {\"N\": 1}, \"3\": {\"N\": 1}}" energy=-29.613210678100586 free_energy=-29.613210678100586 stress="-0.008381607942283154 -0.00427666213363409 0.005492874421179295 -0.00427666213363409 -0.013937124982476234 0.0014803634257987142 0.005492874421179295 0.0014803634257987142 0.012475387193262577" pbc="T T T"
Al       1.57767908       0.87033378       2.48321562        0       0.42145809      -0.10086038       0.75449503      -0.50598776       0.14215407       0.64867467
Al       0.00878683       1.84488739       5.00616580        1       0.94842570       0.04829664      -0.67234738      -0.28191057      -0.37569731       0.05942892
N        1.54733735       0.91884310       4.41695262        2      -0.50233649      -0.06173814      -0.86681646       0.26756793       0.16352578       0.34766638
N       -0.02491946       1.77881442       1.96659663        3      -0.86754729       0.11430181       0.78466892       0.52033043       0.07001767      -1.05576980
4
Lattice="3.128588 0.0 0.0 -1.5642939988088433 2.709436998432005 0.0 0.0 0.0 5.016955" Properties=species:S:1:pos:R:3:spacegroup_kinds:I:1:momenta:R:3:forces:R:3 spacegroup="P 1" unit_cell=conventional occupancy="_JSON {\"0\": {\"Al\": 1}, \"1\": {\"Al\": 1}, \"2\": {\"N\": 1}, \"3\": {\"N\": 1}}" energy=-29.55784034729004 free_energy=-29.55784034729004 stress="-0.01636376790702343 -0.002947488334029913 0.012903588823974133 -0.002947488334029913 -0.006207431200891733 0.0015374845825135708 0.012903588823974133 0.0015374845825135708 -0.002714591333642602" pbc="T T T"
Al       1.59068811       0.88023428       2.52274589        0      -0.41625626       0.17887041       0.33160918      -0.90884256      -0.14030677      -0.36867970
Al       0.01872294       1.83477377       4.97781990        1       0.14973938      -0.20763030      -0.17578623      -0.72829616      -0.10046305       0.72652608
N        1.52039167       0.92489995       4.39464376        2       0.19754409       0.25939886       0.47781730       0.72475874      -0.09604999       0.71574163
N       -0.04216861       1.77342025       1.96745696        3       0.06897280      -0.23063903      -0.63364013       0.91238010       0.33682001      -1.07358789
4
Lattice="3.128588 0.0 0.0 -1.5642939988088433 2.709436998432005 0.0 0.0 0.0 5.016955" Properties=species:S:1:pos:R:3:spacegroup_kinds:I:1:momenta:R:3:forces:R:3 spacegroup="P 1" unit_cell=conventional occupancy="_JSON {\"0\": {\"Al\": 1}, \"1\": {\"Al\": 1}, \"2\": {\"N\": 1}, \"3\": {\"N\": 1}}" energy=-29.621112823486328 free_energy=-29.621112823486328 stress="-0.02150086686015129 0.005276512820273638 -0.0032674125395715237 0.005276512820273638 0.010657422244548798 0.0019249320030212402 -0.0032674125395715237 0.0019249320030212402 -0.001589890569448471" pbc="T T T"
Al       1.54767648       0.89587761       2.50832860        0      -0.85809950       0.46896516      -1.00003175       0.39160377      -0.39029205      -0.15032724
Al       0.00665802       1.82067515       5.00342494        1      -0.72966977      -0.11082642       1.46536814      -0.00949792       0.22696683       0.34863114
N        1.57185931       0.94293298       4.45440718        2       0.62349903      -0.37686538       0.64593190      -0.01969912      -0.43335032      -0.83890051
N        0.01256032       1.75229418       1.88600539        3       0.96427026       0.01872660      -1.11126824      -0.36240667       0.59667534       0.64059681
4
Lattice="3.128588 0.0 0.0 -1.5642939988088433 2.709436998432005 0.0 0.0 0.0 5.016955" Properties=species:S:1:pos:R:3:spacegroup_kinds:I:1:momenta:R:3:forces:R:3 spacegroup="P 1" unit_cell=conventional occupancy="_JSON {\"0\": {\"Al\": 1}, \"1\": {\"Al\": 1}, \"2\": {\"N\": 1}, \"3\": {\"N\": 1}}" energy=-29.520856857299805 free_energy=-29.520856857299805 stress="-0.01404758170247078 0.011821025982499123 -0.014255574904382229 0.011821025982499123 -0.005614847876131535 0.00936145894229412 -0.014255574904382229 0.00936145894229412 -0.019571106880903244" pbc="T T T"
Al       1.52999430       0.91403915       2.46474569        0       0.09545147      -0.23101258      -1.18071377       1.21875525      -0.63577121       0.99290299
Al      -0.00890654       1.82180733       5.05208967        1       0.31216934      -0.10747473       0.45537725       0.39472753      -0.38378412      -1.12710452
N        1.59437714       0.88605553       4.45928987        2      -0.04799037      -0.53350321      -0.20523198      -0.40810502       0.35578877      -0.79021597
N        0.05384442       1.77207218       1.87145004        3      -0.35963043       0.87199047       0.93056855      -1.20537782       0.66376674       0.92441714
4
Lattice="3.128588 0.0 0.0 -1.5642939988088433 2.709436998432005 0.0 0.0 0.0 5.016955" Properties=species:S:1:pos:R:3:spacegroup_kinds:I:1:momenta:R:3:forces:R:3 spacegroup="P 1" unit_cell=conventional occupancy="_JSON {\"0\": {\"Al\": 1}, \"1\": {\"Al\": 1}, \"2\": {\"N\": 1}, \"3\": {\"N\": 1}}" energy=-29.618785858154297 free_energy=-29.618785858154297 stress="0.01011751126497984 -0.0018218914046883583 -0.0018730016890913248 -0.0018218914046883583 -0.02478322573006153 0.004591087810695171 -0.0018730016890913248 0.004591087810695171 2.6383015210740268e-05" pbc="T T T"
Al       1.53818033       0.90928017       2.47247629        0       0.23228449      -0.27447274       1.41733316       0.21200901       0.18702182       0.85530680
Al       0.01802693       1.81430743       5.03506517        1       0.60360882      -0.42930274      -1.11140779       0.03760052      -0.69444168      -0.55142438
N        1.59518012       0.85128046       4.42414653        2       0.09084556       0.02420688      -0.77345479      -0.19470134       0.84070587       0.01228048
N       -0.01452987       1.83034435       1.92467355        3      -0.92673883       0.67956856       0.46752941      -0.05490817      -0.33328575      -0.31616306
4
Lattice="3.128588 0.0 0.0 -1.5642939988088433 2.709436998432005 0.0 0.0 0.0 5.016955" Properties=species:S:1:pos:R:3:spacegroup_kinds:I:1:momenta:R:3:forces:R:3 spacegroup="P 1" unit_cell=conventional occupancy="_JSON {\"0\": {\"Al\": 1}, \"1\": {\"Al\": 1}, \"2\": {\"N\": 1}, \"3\": {\"N\": 1}}" energy=-29.62374496459961 free_energy=-29.62374496459961 stress="0.004300391301512718 -0.008672570809721947 0.0028819588478654623 -0.008672570809721947 -0.006943733897060156 -0.004434613510966301 0.0028819588478654623 -0.004434613510966301 -0.014839187264442444" pbc="T T T"
Al       1.54321200       0.89379622       2.53645983        0      -0.00705505      -0.41529115       0.79445056      -0.25249952       0.39303029      -0.87834406
Al       0.03580902       1.79893951       4.98957807        1       0.09337915      -0.29525156      -0.61192023      -0.16601333       0.14058292       0.62745154
N        1.59619754       0.90645095       4.40111848        2      -0.02189795       1.09350687       0.27120754      -0.08899532      -0.09593929       0.34910983
N       -0.05911257       1.83464208       1.91219263        3      -0.06442614      -0.38296419      -0.45373791       0.50750804      -0.43767405      -0.09821759
