13
Lattice="7.26870274 0.0 0.0 3.634351370000001 6.294881225397555 0.0 3.634351370000001 2.0982937417991856 5.934870934989993" Properties=species:S:1:pos:R:3:spacegroup_kinds:I:1:momenta:R:3:forces:R:3 spacegroup="P 1" unit_cell=conventional occupancy="_JSON {\"0\": {\"Li\": 1}, \"1\": {\"Li\": 1}, \"2\": {\"Li\": 1}, \"3\": {\"Li\": 1}, \"4\": {\"Li\": 1}, \"5\": {\"Li\": 1}, \"6\": {\"P\": 1}, \"7\": {\"S\": 1}, \"8\": {\"S\": 1}, \"9\": {\"S\": 1}, \"10\": {\"S\": 1}, \"11\": {\"S\": 1}, \"12\": {\"Cl\": 1}}" energy=-53.33317184448242 free_energy=-53.33317184448242 stress="-0.0010121238883584738 -0.0004964226391166449 0.00047233610530383885 -0.0004964226391166449 -0.003706376301124692 0.0012786927400156856 0.00047233610530383885 0.0012786927400156856 -0.00032925725099630654" pbc="T T T"
Li       9.25881741       7.24155849       3.05082283        0       0.24687844       0.02626206       0.16139881       0.01665394      -0.13695621       0.03803051
Li      12.52352604       5.36858678       5.78694080        1      -0.31167549       0.00740631       0.43763496       0.15571460      -0.07511370       0.06633304
Li       9.20211904       5.46030725       5.74252191        2       0.00663918       0.32513281       0.08777413      -0.13636997       0.03152924       0.21472724
Li      12.44631735       7.24606556       3.03533675        3      -0.32945567      -0.21720668      -0.14120445       0.17703263      -0.01839315      -0.17306685
Li      11.00111784       4.47660613       3.05967013        4       0.08237814       0.09059861      -0.18782205      -0.29198095      -0.07322482      -0.11501347
Li      10.76552482       8.23499875       5.73514142        5      -0.56681115       0.11136766       0.11503044      -0.10892446       0.04212168       0.24742946
P        7.25631849       4.17939075       2.95945036        6       0.09433422      -0.28598692      -0.55125481       0.15459779       0.13713242       0.00616945
S        7.25664296       6.13119711       2.31174157        7       0.00431095       0.10417910      -0.28284461      -0.16309917      -0.05056860      -0.23740681
S        8.94398325       3.21951667       2.28264992        8       0.20192604       0.18236271      -0.31661509       0.06813949       0.11424164      -0.02882932
S        5.56952255       3.19245491       2.31256027        9      -0.13183023      -0.50508275       0.73228774       0.14947031       0.12630022      -0.24768804
S        7.29374453       4.20783449       5.01110503       10      -0.15540498       0.20875947      -0.11071472      -0.16840178      -0.01087494       0.14305246
S       10.89366268       6.32521791       4.45055071       11      -0.33482397       0.32421535      -0.02108114      -0.03900786      -0.00996938      -0.07668480
Cl       0.07273061      -0.03126341       0.02175147       12       1.19353452      -0.37200773       0.07741081       0.18617541      -0.07622448       0.16294727
