13
Lattice="7.26870274 0.0 0.0 3.634351370000001 6.294881225397555 0.0 3.634351370000001 2.0982937417991856 5.934870934989993" Properties=species:S:1:pos:R:3:spacegroup_kinds:I:1:momenta:R:3:forces:R:3 spacegroup="P 1" unit_cell=conventional occupancy="_JSON {\"0\": {\"Li\": 1}, \"1\": {\"Li\": 1}, \"2\": {\"Li\": 1}, \"3\": {\"Li\": 1}, \"4\": {\"Li\": 1}, \"5\": {\"Li\": 1}, \"6\": {\"P\": 1}, \"7\": {\"S\": 1}, \"8\": {\"S\": 1}, \"9\": {\"S\": 1}, \"10\": {\"S\": 1}, \"11\": {\"S\": 1}, \"12\": {\"Cl\": 1}}" energy=-53.3634147644043 free_energy=-53.3634147644043 stress="-0.0007941982476040721 -2.3017894079657708e-07 -1.7041409705598198e-07 -2.3017894079657708e-07 -0.0007939612260088325 -1.0417235785098455e-07 -1.7041409705598198e-07 -1.0417235785098455e-07 -0.0007939100032672286" pbc="T T T"
Li       9.25387995       7.24703237       3.10460814        0       0.00000000       0.00000000       0.00000000       0.00422602      -0.00243460       0.00344849
Li      12.55222827       5.34273008       5.79769826        1       0.00000000       0.00000000       0.00000000      -0.00421082       0.00243326      -0.00344143
Li       9.25387995       5.34273008       5.79769826        2       0.00000000       0.00000000       0.00000000       0.00422522       0.00243943      -0.00344723
Li      12.55222827       7.24703237       3.10460814        3       0.00000000       0.00000000       0.00000000      -0.00421230      -0.00243089       0.00344086
Li      10.90305411       4.39057894       3.10460814        4       0.00000000       0.00000000       0.00000000       0.00000258       0.00487638       0.00344783
Li      10.90305411       8.19918351       5.79769826        5       0.00000000       0.00000000       0.00000000       0.00000199      -0.00486363      -0.00344152
P        7.26870274       4.19658748       2.96743547        6       0.00000000       0.00000000       0.00000000       0.00008505       0.00004586       0.00003594
S        7.26870637       6.13578650       2.28182731        7       0.00000000       0.00000000       0.00000000      -0.00001853      -0.01090993       0.00384765
S        8.94810016       3.22699113       2.28182731        8       0.00000000       0.00000000       0.00000000      -0.00945806       0.00544043       0.00384735
S        5.58931258       3.22699113       2.28182731        9       0.00000000       0.00000000       0.00000000       0.00937828       0.00541319       0.00383037
S        7.26870637       4.19658958       5.02426588       10       0.00000000       0.00000000       0.00000000      -0.00001911      -0.00000896      -0.01156932
S       10.90305411       6.29488123       4.45115320       11       0.00000000       0.00000000       0.00000000      -0.00000141      -0.00000133      -0.00000031
Cl       0.00000000       0.00000000       0.00000000       12       0.00000000       0.00000000       0.00000000       0.00000108       0.00000081       0.00000133
13
Lattice="7.26870274 0.0 0.0 3.634351370000001 6.294881225397555 0.0 3.634351370000001 2.0982937417991856 5.934870934989993" Properties=species:S:1:pos:R:3:spacegroup_kinds:I:1:momenta:R:3:forces:R:3 spacegroup="P 1" unit_cell=conventional occupancy="_JSON {\"0\": {\"Li\": 1}, \"1\": {\"Li\": 1}, \"2\": {\"Li\": 1}, \"3\": {\"Li\": 1}, \"4\": {\"Li\": 1}, \"5\": {\"Li\": 1}, \"6\": {\"P\": 1}, \"7\": {\"S\": 1}, \"8\": {\"S\": 1}, \"9\": {\"S\": 1}, \"10\": {\"S\": 1}, \"11\": {\"S\": 1}, \"12\": {\"Cl\": 1}}" energy=-53.36324691772461 free_energy=-53.36324691772461 stress="-0.0006733376067131758 9.079041046788916e-05 7.639991235919297e-05 9.079041046788916e-05 -0.0007725371397100389 3.176515019731596e-05 7.639991235919297e-05 3.176515019731596e-05 -0.0008314676233567297" pbc="T T T"
Li       9.25468417       7.24727338       3.10570164        0       0.01226595       0.02644038      -0.01009863      -0.00117183      -0.00035258       0.00043714
Li      12.55478393       5.34111366       5.79930606        1       0.12881425      -0.01921225       0.09938117      -0.02130829       0.01157493      -0.01195663
Li       9.25218840       5.34289967       5.79579521        2      -0.07087454       0.02931832      -0.03153170       0.01001527       0.00639069       0.00405150
Li      12.55303243       7.24759546       3.10480786        3       0.02931315      -0.02448376       0.02860698      -0.00691371      -0.00422670       0.00664739
Li      10.90492861       4.39126169       3.10450569        4       0.04876510       0.03737989       0.05077199      -0.00529681       0.00176253       0.00115836
Li      10.90313451       8.19894826       5.80062536        5      -0.02508485      -0.00044287       0.11932873      -0.00050575      -0.00875597      -0.01738445
P        7.26878830       4.19753146       2.96833043        6      -0.07503180       0.29188121       0.08197972      -0.01885151      -0.02851899      -0.02364872
S        7.26884343       6.13533956       2.28052928        7       0.17337109      -0.14917841      -0.23508466       0.00136930      -0.00121740       0.01698319
S        8.94723065       3.22664843       2.28182181        8      -0.12067322      -0.18262769       0.12540317      -0.00311372       0.01221970       0.01257742
S        5.58875916       3.22600707       2.28168229        9      -0.19780962      -0.15295140      -0.09435175       0.02845687       0.02011108       0.01011730
S        7.26857121       4.19707634       5.02461965       10      -0.04342871       0.08331605      -0.03124090       0.00176305      -0.00442418      -0.00861101
S       10.90238340       6.29530682       4.45091410       11      -0.21890603       0.14729457      -0.08111993       0.01478893      -0.00307694       0.00999085
Cl       0.00090553      -0.00003766      -0.00037023       12       0.35927925      -0.08673404      -0.02204419       0.00076824      -0.00148617      -0.00036239
13
Lattice="7.26870274 0.0 0.0 3.634351370000001 6.294881225397555 0.0 3.634351370000001 2.0982937417991856 5.934870934989993" Properties=species:S:1:pos:R:3:spacegroup_kinds:I:1:momenta:R:3:forces:R:3 spacegroup="P 1" unit_cell=conventional occupancy="_JSON {\"0\": {\"Li\": 1}, \"1\": {\"Li\": 1}, \"2\": {\"Li\": 1}, \"3\": {\"Li\": 1}, \"4\": {\"Li\": 1}, \"5\": {\"Li\": 1}, \"6\": {\"P\": 1}, \"7\": {\"S\": 1}, \"8\": {\"S\": 1}, \"9\": {\"S\": 1}, \"10\": {\"S\": 1}, \"11\": {\"S\": 1}, \"12\": {\"Cl\": 1}}" energy=-53.36252212524414 free_energy=-53.36252212524414 stress="-0.00028544157976284623 9.892397793009877e-05 0.00012446954497136176 9.892397793009877e-05 -0.0008497253875248134 0.00010830330575117841 0.00012446954497136176 0.00010830330575117841 -0.0009403766598552465" pbc="T T T"
Li       9.25251533       7.24733348       3.10400418        0      -0.14451698      -0.04897774      -0.10942495       0.01209027       0.00207976       0.00872645
Li      12.55814492       5.34166147       5.80339938        1       0.07186353       0.03020175       0.05026375      -0.03975723       0.02154878      -0.02749032
Li       9.24650356       5.34478770       5.79493974        2      -0.23592834       0.08029425      -0.03858289       0.02460461       0.01824371       0.00295675
Li      12.55405208       7.24864102       3.10606197        3       0.05948285       0.11093355      -0.02528699      -0.00970579      -0.00775531       0.00999913
Li      10.90596996       4.39392804       3.10555518        4       0.01332671       0.07683639      -0.01135496      -0.00966807      -0.00803126      -0.00549992
Li      10.90045719       8.19833178       5.80478007        5      -0.20141364       0.06875340       0.07963556      -0.00471051      -0.01295288      -0.03806267
P        7.26840485       4.19932003       2.96887482        6      -0.04115305       0.14171509       0.02792987      -0.02854284      -0.10129979      -0.05167704
S        7.27020381       6.13427394       2.27948411        7       0.20913075      -0.19818913       0.01594444      -0.00837405       0.02520992       0.02210302
S        8.94703565       3.22504887       2.28217366        8      -0.06738291      -0.17081798      -0.00952858      -0.01419377       0.03491927       0.02970920
S        5.58703168       3.22531811       2.28065238        9      -0.13428346      -0.07298055      -0.20678947       0.05776114       0.04570681       0.02457664
S        7.26799512       4.19700257       5.02425861       10       0.00647322      -0.01767437       0.12705848      -0.00112116      -0.00768233      -0.00091965
S       10.90160117       6.29620565       4.45066127       11       0.02104850       0.05951530       0.09960722       0.01915912      -0.00286708       0.02575396
Cl       0.00390696      -0.00024966      -0.00031129       12       0.44335282      -0.05960996       0.00052850       0.00245826      -0.00711964      -0.00017554
13
Lattice="7.26870274 0.0 0.0 3.634351370000001 6.294881225397555 0.0 3.634351370000001 2.0982937417991856 5.934870934989993" Properties=species:S:1:pos:R:3:spacegroup_kinds:I:1:momenta:R:3:forces:R:3 spacegroup="P 1" unit_cell=conventional occupancy="_JSON {\"0\": {\"Li\": 1}, \"1\": {\"Li\": 1}, \"2\": {\"Li\": 1}, \"3\": {\"Li\": 1}, \"4\": {\"Li\": 1}, \"5\": {\"Li\": 1}, \"6\": {\"P\": 1}, \"7\": {\"S\": 1}, \"8\": {\"S\": 1}, \"9\": {\"S\": 1}, \"10\": {\"S\": 1}, \"11\": {\"S\": 1}, \"12\": {\"Cl\": 1}}" energy=-53.36130905151367 free_energy=-53.36130905151367 stress="8.773759327596053e-05 5.626799611491151e-05 9.97509851003997e-05 5.626799611491151e-05 -0.0008838316425681114 0.00019141138182021677 9.97509851003997e-05 0.00019141138182021677 -0.0008705516811460257" pbc="T T T"
Li       9.24880471       7.24470627       3.09726637        0      -0.05173666      -0.11974717      -0.21031018       0.04390604       0.00006932       0.02621331
Li      12.56045758       5.34281108       5.80418308        1       0.10653837       0.05499927      -0.01469665      -0.04947906       0.02778129      -0.03078572
Li       9.23881162       5.34722073       5.79283914        2      -0.21139206       0.13723144      -0.05091545       0.05251428       0.03843442       0.00247572
Li      12.55499974       7.25398843       3.10490714        3      -0.00788200       0.15401150      -0.04903022      -0.01538289      -0.02339598       0.01968736
Li      10.90789142       4.39718298       3.10341317        4       0.06660098       0.10752784      -0.06325209      -0.01742843      -0.01096334      -0.00962859
Li      10.89115876       8.19916653       5.80525261        5      -0.24184289      -0.00666458      -0.06623523      -0.01236962      -0.02092393      -0.04162588
P        7.26694857       4.19975566       2.97099323        6      -0.30631591       0.02731233       0.28218528      -0.02305935      -0.14494349      -0.10688413
S        7.27132867       6.13366797       2.28024628        7      -0.03254702       0.00260613       0.23072126      -0.02968882       0.02569941       0.01816859
S        8.94662158       3.22415930       2.28148078        8       0.04501592      -0.18880373      -0.08135048      -0.03292186       0.06468551       0.04654796
S        5.58485079       3.22347778       2.27951546        9      -0.22842531      -0.33023950      -0.14832937       0.09085482       0.07205662       0.04431017
S        7.26947316       4.19788497       5.02501948       10       0.22517870       0.17456368       0.14318273      -0.01893332      -0.01900164       0.00711821
S       10.90291428       6.29689831       4.45065531       11       0.05253613       0.13603545      -0.02513241       0.00297798       0.00379077       0.02082046
Cl       0.00705049      -0.00112393       0.00020921       12       0.58427176      -0.14883266       0.05316280       0.00901028      -0.01328896       0.00358255
13
Lattice="7.26870274 0.0 0.0 3.634351370000001 6.294881225397555 0.0 3.634351370000001 2.0982937417991856 5.934870934989993" Properties=species:S:1:pos:R:3:spacegroup_kinds:I:1:momenta:R:3:forces:R:3 spacegroup="P 1" unit_cell=conventional occupancy="_JSON {\"0\": {\"Li\": 1}, \"1\": {\"Li\": 1}, \"2\": {\"Li\": 1}, \"3\": {\"Li\": 1}, \"4\": {\"Li\": 1}, \"5\": {\"Li\": 1}, \"6\": {\"P\": 1}, \"7\": {\"S\": 1}, \"8\": {\"S\": 1}, \"9\": {\"S\": 1}, \"10\": {\"S\": 1}, \"11\": {\"S\": 1}, \"12\": {\"Cl\": 1}}" energy=-53.35927963256836 free_energy=-53.35927963256836 stress="0.0006790464976802468 -3.871714943670668e-05 4.67594618385192e-05 -3.871714943670668e-05 -0.0009132754057645798 0.00034576814505271614 4.67594618385192e-05 0.00034576814505271614 -0.0007231682538986206" pbc="T T T"
Li       9.24510951       7.24342073       3.09111278        0      -0.13470741      -0.04696043      -0.15751357       0.06961397      -0.00640747       0.04421495
Li      12.56233683       5.34535260       5.80331117        1      -0.03677807       0.05039466      -0.05768712      -0.05324865       0.03112498      -0.02795622
Li       9.23051129       5.35385164       5.79203345        2      -0.32476574       0.18638475      -0.04852581       0.07370141       0.05859978      -0.00095093
Li      12.55243824       7.26136980       3.10084205        3      -0.17140560       0.17835996      -0.17910344      -0.01841023      -0.04873402       0.02883219
Li      10.90836324       4.40324020       3.10147503        4       0.04932756       0.16367142      -0.05274401      -0.01926219      -0.02353519      -0.02066564
Li      10.88427586       8.19975324       5.80297861        5      -0.19669503       0.00456068      -0.10976090      -0.01922645      -0.02125312      -0.02900241
P        7.26520206       4.19982925       2.97325190        6      -0.10376684      -0.01985073       0.33811154      -0.00847660      -0.18788797      -0.16948022
S        7.27099871       6.13390216       2.28287511        7      -0.13307473       0.01622165       0.37508958      -0.04831123       0.01062456       0.00328479
S        8.94765492       3.22225251       2.28106487        8       0.21600922      -0.13141117      -0.10325886      -0.07330133       0.11574455       0.06121511
S        5.58239317       3.21976971       2.27822085        9      -0.31540611      -0.57171790      -0.14271341       0.13030660       0.11413919       0.07071353
S        7.27134064       4.19881242       5.02590541       10       0.30826635       0.14874771       0.10297043      -0.03688397      -0.03207314       0.01476565
S       10.90373795       6.29838992       4.45037443       11       0.15224613       0.25029147       0.04629035      -0.01255916       0.01161000       0.01481084
Cl       0.01140534      -0.00268145      -0.00011777       12       0.69075027      -0.22869206      -0.01115478       0.01605776      -0.02195212       0.01021838
13
Lattice="7.26870274 0.0 0.0 3.634351370000001 6.294881225397555 0.0 3.634351370000001 2.0982937417991856 5.934870934989993" Properties=species:S:1:pos:R:3:spacegroup_kinds:I:1:momenta:R:3:forces:R:3 spacegroup="P 1" unit_cell=conventional occupancy="_JSON {\"0\": {\"Li\": 1}, \"1\": {\"Li\": 1}, \"2\": {\"Li\": 1}, \"3\": {\"Li\": 1}, \"4\": {\"Li\": 1}, \"5\": {\"Li\": 1}, \"6\": {\"P\": 1}, \"7\": {\"S\": 1}, \"8\": {\"S\": 1}, \"9\": {\"S\": 1}, \"10\": {\"S\": 1}, \"11\": {\"S\": 1}, \"12\": {\"Cl\": 1}}" energy=-53.35626220703125 free_energy=-53.35626220703125 stress="0.001097401836887002 -0.0002235251449747011 -0.00010469747212482616 -0.0002235251449747011 -0.0011119490955024958 0.0004901295760646462 -0.00010469747212482616 0.0004901295760646462 -0.000505473930388689" pbc="T T T"
Li       9.23906199       7.24025676       3.08340269        0      -0.18862619      -0.13491747      -0.28578771       0.10282900      -0.01047646       0.06575311
Li      12.55812520       5.34801809       5.80038709        1      -0.12134310       0.04964388      -0.08596326      -0.03411033       0.02072670      -0.01321071
Li       9.21926848       5.35937892       5.79039333        2      -0.33189345       0.06997283      -0.06085611       0.10568354       0.08740419      -0.00239472
Li      12.54502164       7.26767687       3.09394303        3      -0.24986512       0.17138239      -0.17901979      -0.01158755      -0.07134280       0.02721974
Li      10.91116082       4.40879117       3.09813394        4       0.12573510       0.13746946      -0.09526950      -0.02787142      -0.02556369      -0.02619833
Li      10.87848370       8.19974585       5.79687201        5      -0.13759516      -0.02276655      -0.25647926      -0.02609574      -0.00849639       0.00160822
P        7.26358843       4.19968909       2.97491551        6      -0.27831075      -0.05042815       0.04772996       0.01984290      -0.23034000      -0.21270309
S        7.27030066       6.13330535       2.28615146        7      -0.16121316      -0.08785194       0.46414730      -0.07761870       0.00826329      -0.02800821
S        8.94962705       3.22133182       2.28089503        8       0.29093734      -0.02619323       0.00889997      -0.11331145       0.16013223       0.06672233
S        5.58043049       3.21608755       2.27809290        9      -0.20959815      -0.39762390       0.09766932       0.16288570       0.14385416       0.08537139
S        7.27446018       4.19995324       5.02656031       10       0.40775605       0.24491943       0.14660139      -0.07504667      -0.04619487       0.02208054
S       10.90464016       6.30191877       4.45059190       11       0.14725754       0.49378437      -0.06484448      -0.04972228      -0.00042302      -0.00684010
Cl       0.01599386      -0.00526166       0.00062412       12       0.70675904      -0.44739111       0.26317220       0.02412305      -0.02754335       0.02059980
13
Lattice="7.26870274 0.0 0.0 3.634351370000001 6.294881225397555 0.0 3.634351370000001 2.0982937417991856 5.934870934989993" Properties=species:S:1:pos:R:3:spacegroup_kinds:I:1:momenta:R:3:forces:R:3 spacegroup="P 1" unit_cell=conventional occupancy="_JSON {\"0\": {\"Li\": 1}, \"1\": {\"Li\": 1}, \"2\": {\"Li\": 1}, \"3\": {\"Li\": 1}, \"4\": {\"Li\": 1}, \"5\": {\"Li\": 1}, \"6\": {\"P\": 1}, \"7\": {\"S\": 1}, \"8\": {\"S\": 1}, \"9\": {\"S\": 1}, \"10\": {\"S\": 1}, \"11\": {\"S\": 1}, \"12\": {\"Cl\": 1}}" energy=-53.352203369140625 free_energy=-53.352203369140625 stress="0.0012349954340606928 -0.0005907650338485837 -0.00033425510628148913 -0.0005907650338485837 -0.0013636180665344 0.000581895001232624 -0.00033425510628148913 0.000581895001232624 -0.00019178129150532186" pbc="T T T"
Li       9.23419791       7.23506357       3.07392426        0      -0.11163851      -0.14325301      -0.21403463       0.13392293      -0.01076449       0.08237149
Li      12.55414867       5.35017565       5.79529670        1      -0.11429115       0.09086695      -0.15959382      -0.01287314       0.00975512       0.01092622
Li       9.20816360       5.36400122       5.78757855        2      -0.23413982       0.17126465      -0.05284792       0.14024216       0.11862022      -0.00055086
Li      12.53589608       7.27249001       3.08810925        3      -0.23319635       0.05315457      -0.15031768       0.00323040      -0.08829846       0.01753855
Li      10.91461266       4.41261081       3.09420604        4       0.04572684       0.08362512      -0.00740341      -0.04272659      -0.01819985      -0.02614000
Li      10.87156666       8.19997789       5.78763211        5      -0.15819913       0.05341536      -0.29603906      -0.03442062       0.01213881       0.04520189
P        7.26039924       4.19887407       2.97539332        6      -0.48803848      -0.22040811       0.08602933       0.10359798      -0.24543539      -0.22746392
S        7.26903326       6.13286445       2.29002547        7      -0.22077994      -0.05512695       0.59462838      -0.10876358       0.00310746      -0.06840581
S        8.95181632       3.21966892       2.28115197        8       0.31989770      -0.24125549      -0.05522274      -0.16545239       0.20638908       0.06762289
S        5.57919852       3.21420562       2.27895673        9      -0.15750730      -0.14280600       0.13030416       0.16162130       0.14063227       0.08036634
S        7.27839502       4.20204208       5.02707718       10       0.51024818       0.33689349       0.06142436      -0.11943945      -0.06772444       0.01877306
S       10.90558425       6.30631540       4.45069385       11       0.20362109       0.59291517      -0.04070728      -0.09088427      -0.02877487      -0.03246200
Cl       0.02109123      -0.00886826       0.00224284       12       0.63829687      -0.57928576       0.10378031       0.03194527      -0.03144544       0.03222219
13
Lattice="7.26870274 0.0 0.0 3.634351370000001 6.294881225397555 0.0 3.634351370000001 2.0982937417991856 5.934870934989993" Properties=species:S:1:pos:R:3:spacegroup_kinds:I:1:momenta:R:3:forces:R:3 spacegroup="P 1" unit_cell=conventional occupancy="_JSON {\"0\": {\"Li\": 1}, \"1\": {\"Li\": 1}, \"2\": {\"Li\": 1}, \"3\": {\"Li\": 1}, \"4\": {\"Li\": 1}, \"5\": {\"Li\": 1}, \"6\": {\"P\": 1}, \"7\": {\"S\": 1}, \"8\": {\"S\": 1}, \"9\": {\"S\": 1}, \"10\": {\"S\": 1}, \"11\": {\"S\": 1}, \"12\": {\"Cl\": 1}}" energy=-53.348079681396484 free_energy=-53.348079681396484 stress="0.0012976661091670394 -0.0009547980735078454 -0.0004504299140535295 -0.0009547980735078454 -0.001623697578907013 0.0006591178243979812 -0.0004504299140535295 0.0006591178243979812 -0.00021080009173601866" pbc="T T T"
Li       9.23083823       7.23098160       3.06712605        0      -0.04617593      -0.11689177      -0.17168856       0.14990446      -0.00995224       0.09016120
Li      12.55383261       5.35333488       5.79183155        1       0.07727582       0.10858264      -0.12296006       0.00054692       0.00535023       0.02783278
Li       9.20067795       5.37088492       5.78431314        2      -0.15509985       0.21138650      -0.10847000       0.15774725       0.13947216       0.00837921
Li      12.52564521       7.27257246       3.08180445        3      -0.32748412      -0.04939886      -0.16163737       0.01957437      -0.09063601       0.00021207
Li      10.91728140       4.41719623       3.09392717        4       0.16990042       0.24521633      -0.00102896      -0.05460618      -0.02717054      -0.03472730
Li      10.86537383       8.20142256       5.77699721        5      -0.17250523       0.04802993      -0.30728418      -0.04122103       0.03099763       0.09392495
P        7.25775878       4.19742486       2.97607369        6      -0.27717404      -0.10760663       0.06965213       0.17646807      -0.24357048      -0.26994821
S        7.26592271       6.13258598       2.29520351        7      -0.49914455      -0.06598283       0.63162117      -0.12258465      -0.00268857      -0.11454436
S        8.95370733       3.21767827       2.28147577        8       0.15711707      -0.21268599       0.04377142      -0.20577732       0.24184881       0.07207003
S        5.57830517       3.21309533       2.28006412        9      -0.10915548      -0.08309334       0.17054205       0.14976630       0.13030675       0.07113165
S        7.28231922       4.20433281       5.02548029       10       0.40937302       0.18003585      -0.30543694      -0.15004262      -0.08795681       0.05574925
S       10.90646766       6.30989636       4.45042411       11       0.07563951       0.36646504      -0.04669919      -0.12037942      -0.04996157      -0.04353507
Cl       0.02584273      -0.01230709       0.00334064       12       0.69743336      -0.52405686       0.30961851       0.04060386      -0.03603944       0.04329377
13
Lattice="7.26870274 0.0 0.0 3.634351370000001 6.294881225397555 0.0 3.634351370000001 2.0982937417991856 5.934870934989993" Properties=species:S:1:pos:R:3:spacegroup_kinds:I:1:momenta:R:3:forces:R:3 spacegroup="P 1" unit_cell=conventional occupancy="_JSON {\"0\": {\"Li\": 1}, \"1\": {\"Li\": 1}, \"2\": {\"Li\": 1}, \"3\": {\"Li\": 1}, \"4\": {\"Li\": 1}, \"5\": {\"Li\": 1}, \"6\": {\"P\": 1}, \"7\": {\"S\": 1}, \"8\": {\"S\": 1}, \"9\": {\"S\": 1}, \"10\": {\"S\": 1}, \"11\": {\"S\": 1}, \"12\": {\"Cl\": 1}}" energy=-53.343624114990234 free_energy=-53.343624114990234 stress="0.0013375382404774427 -0.0012636231258511543 -0.00042778070201165974 -0.0012636231258511543 -0.00210854085162282 0.0008157339761964977 -0.00042778070201165974 0.0008157339761964977 -0.0003598595503717661" pbc="T T T"
Li       9.22934655       7.22802261       3.06109422        0      -0.05607212      -0.03892481      -0.17678638       0.15571821      -0.01050796       0.09144235
Li      12.55546015       5.35774689       5.78833134        1       0.00021719       0.15322611      -0.11391564       0.01452707       0.00108915       0.04859257
Li       9.19534832       5.37903057       5.77865958        2      -0.10704600       0.30568897      -0.13678295       0.16059479       0.15099451       0.02646680
Li      12.51305828       7.27092039       3.07769773        3      -0.37601710      -0.06616864      -0.09513664       0.04612982      -0.08077040      -0.02851297
Li      10.92538002       4.42682683       3.09374263        4       0.28196269       0.25001149      -0.04432271      -0.08170318      -0.05624175      -0.05932318
Li      10.85952807       8.20511064       5.76761937        5      -0.15144027       0.17762878      -0.19268581      -0.04831816       0.03719307       0.13386658
P        7.25511156       4.19658146       2.97571325        6      -0.23558793      -0.07000510      -0.19419762       0.24681589      -0.26926482      -0.30381384
S        7.26169243       6.13131994       2.30040194        7      -0.42985133      -0.26077229       0.69271567      -0.13051564       0.02390152      -0.15917231
S        8.95468393       3.21537773       2.28229631        8       0.06932275      -0.23229443       0.22619435      -0.22664493       0.27667117       0.07602590
S        5.57734488       3.21237821       2.28066143        9      -0.29208212      -0.05741610       0.12035700       0.13461521       0.11723312       0.05547359
S        7.28592716       4.20507479       5.02273137       10       0.48798523      -0.03408889      -0.45462337      -0.17503034      -0.09396696       0.10150048
S       10.90719913       6.31261393       4.45031231       11       0.03277770       0.19761825      -0.01145901      -0.14504294      -0.05292439      -0.03943914
Cl       0.03112056      -0.01515391       0.00593794       12       0.77583132      -0.32450333       0.38064311       0.04885414      -0.04340621       0.05689310
13
Lattice="7.26870274 0.0 0.0 3.634351370000001 6.294881225397555 0.0 3.634351370000001 2.0982937417991856 5.934870934989993" Properties=species:S:1:pos:R:3:spacegroup_kinds:I:1:momenta:R:3:forces:R:3 spacegroup="P 1" unit_cell=conventional occupancy="_JSON {\"0\": {\"Li\": 1}, \"1\": {\"Li\": 1}, \"2\": {\"Li\": 1}, \"3\": {\"Li\": 1}, \"4\": {\"Li\": 1}, \"5\": {\"Li\": 1}, \"6\": {\"P\": 1}, \"7\": {\"S\": 1}, \"8\": {\"S\": 1}, \"9\": {\"S\": 1}, \"10\": {\"S\": 1}, \"11\": {\"S\": 1}, \"12\": {\"Cl\": 1}}" energy=-53.339542388916016 free_energy=-53.339542388916016 stress="0.0012105630012229085 -0.0013657292583957314 -0.0002965486200992018 -0.0013657292583957314 -0.002677285810932517 0.0009918161667883396 -0.0002965486200992018 0.0009918161667883396 -0.0005171600496396422" pbc="T T T"
Li       9.22848153       7.22719332       3.05400857        0      -0.01339389      -0.03821674      -0.20837450       0.16289824      -0.01895136       0.09683819
Li      12.55444242       5.36216201       5.78210700        1      -0.08677329       0.08385830      -0.16451763       0.04083859      -0.01162634       0.08014772
Li       9.19259663       5.38884367       5.77411409        2      -0.08490985       0.27265830      -0.10887091       0.14452277       0.15127595       0.04389185
Li      12.49880588       7.26847992       3.07329871        3      -0.44876881      -0.02911630      -0.13983004       0.07771963      -0.06890254      -0.06097372
Li      10.93630243       4.43631470       3.09214989        4       0.33050722       0.24307881      -0.05204457      -0.11721392      -0.07992223      -0.07966089
Li      10.85364364       8.21231619       5.75920243        5      -0.22923401       0.18204296      -0.26550694      -0.05531518       0.02252845       0.16448699
P        7.25393849       4.19476075       2.97457510        6      -0.06369245      -0.38854977      -0.20290442       0.27858472      -0.26869977      -0.31403783
S        7.25943774       6.12972520       2.30590297        7      -0.27296727      -0.15886770       0.65838571      -0.14994107       0.05290496      -0.20103897
S        8.95481950       3.21497119       2.28405795        8      -0.11363094       0.12940187       0.18787625      -0.21545266       0.27829748       0.05642718
S        5.57518438       3.21204974       2.28235894        9      -0.24831405       0.02036592       0.31568223       0.13593686       0.10638708       0.03188260
S        7.28914422       4.20460263       5.01957960       10       0.38290607      -0.09662648      -0.32225625      -0.19389042      -0.08301019       0.14895818
S       10.90651508       6.31347337       4.45066343       11      -0.06061125       0.10935239       0.05827434      -0.16690128      -0.03104601      -0.03972766
Cl       0.03654897      -0.01719790       0.00760161       12       0.90888252      -0.32938154       0.24408675       0.05821373      -0.04923549       0.07280632
13