13
Lattice="7.26870274 0.0 0.0 3.634351370000001 6.294881225397555 0.0 3.634351370000001 2.0982937417991856 5.934870934989993" Properties=species:S:1:pos:R:3:spacegroup_kinds:I:1:forces:R:3 spacegroup="P 1" unit_cell=conventional occupancy="_JSON {\"0\": {\"Li\": 1}, \"1\": {\"Li\": 1}, \"2\": {\"Li\": 1}, \"3\": {\"Li\": 1}, \"4\": {\"Li\": 1}, \"5\": {\"Li\": 1}, \"6\": {\"P\": 1}, \"7\": {\"S\": 1}, \"8\": {\"S\": 1}, \"9\": {\"S\": 1}, \"10\": {\"S\": 1}, \"11\": {\"S\": 1}, \"12\": {\"Cl\": 1}}" energy=-53.3634147644043 free_energy=-53.3634147644043 stress="-0.0007941982476040721 -2.3017894079657708e-07 -1.7041409705598198e-07 -2.3017894079657708e-07 -0.0007939612260088325 -1.0417235785098455e-07 -1.7041409705598198e-07 -1.0417235785098455e-07 -0.0007939100032672286" pbc="T T T"
Li       9.25387995       7.24703237       3.10460814        0       0.00422602      -0.00243460       0.00344849
Li      12.55222827       5.34273008       5.79769826        1      -0.00421082       0.00243326      -0.00344143
Li       9.25387995       5.34273008       5.79769826        2       0.00422522       0.00243943      -0.00344723
Li      12.55222827       7.24703237       3.10460814        3      -0.00421230      -0.00243089       0.00344086
Li      10.90305411       4.39057894       3.10460814        4       0.00000258       0.00487638       0.00344783
Li      10.90305411       8.19918351       5.79769826        5       0.00000199      -0.00486363      -0.00344152
P        7.26870274       4.19658748       2.96743547        6       0.00008505       0.00004586       0.00003594
S        7.26870637       6.13578650       2.28182731        7      -0.00001853      -0.01090993       0.00384765
S        8.94810016       3.22699113       2.28182731        8      -0.00945806       0.00544043       0.00384735
S        5.58931258       3.22699113       2.28182731        9       0.00937828       0.00541319       0.00383037
S        7.26870637       4.19658958       5.02426588       10      -0.00001911      -0.00000896      -0.01156932
S       10.90305411       6.29488123       4.45115320       11      -0.00000141      -0.00000133      -0.00000031
Cl       0.00000000       0.00000000       0.00000000       12       0.00000108       0.00000081       0.00000133
