4
Lattice="3.128588 0.0 0.0 -1.5642939988088433 2.709436998432005 0.0 0.0 0.0 5.016955" Properties=species:S:1:pos:R:3:spacegroup_kinds:I:1:forces:R:3 spacegroup="P 1" unit_cell=conventional occupancy="_JSON {\"0\": {\"Al\": 1}, \"1\": {\"Al\": 1}, \"2\": {\"N\": 1}, \"3\": {\"N\": 1}}" energy=-29.673717498779297 free_energy=-29.673717498779297 stress="-0.002225426724180579 -1.3217143077781657e-06 -5.6949271964867876e-08 -1.3217143077781657e-06 -0.0022274265065789223 -5.059117924588463e-08 -5.6949271964867876e-08 -5.059117924588463e-08 -0.005453679710626602" pbc="T T T"
Al       1.56429556       0.90314476       2.50490041        0      -0.00003309       0.00002097       0.00553145
Al      -0.00000156       1.80629224       5.01337791        1       0.00003455      -0.00001865       0.00552513
N        1.56429556       0.90314476       4.41849749        2      -0.00003619       0.00001924      -0.00553115
N       -0.00000156       1.80629224       1.91001999        3       0.00003465      -0.00002151      -0.00552507
