4
Lattice="3.128588 0.0 0.0 -1.5642939988088433 2.709436998432005 0.0 0.0 0.0 5.016955" Properties=species:S:1:pos:R:3:spacegroup_kinds:I:1:forces:R:3 spacegroup="P 1" unit_cell=conventional occupancy="_JSON {\"0\": {\"Al\": 1}, \"1\": {\"Al\": 1}, \"2\": {\"N\": 1}, \"3\": {\"N\": 1}}" energy=-29.673717498779297 free_energy=-29.673717498779297 stress="-0.002225360833108425 -1.337369894827134e-06 -2.674963361926075e-08 -1.337369894827134e-06 -0.0022274297662079334 -9.977512860359639e-08 -2.674963361926075e-08 -9.977512860359639e-08 -0.005453662481158972" pbc="T T T"
Al       1.56429556       0.90314476       2.50490041        0      -0.00003415       0.00002140       0.00553237
Al      -0.00000156       1.80629224       5.01337791        1       0.00003488      -0.00001776       0.00552441
N        1.56429556       0.90314476       4.41849749        2      -0.00003633       0.00001793      -0.00553107
N       -0.00000156       1.80629224       1.91001999        3       0.00003560      -0.00002158      -0.00552564
