13
Lattice="7.26870274 0.0 0.0 3.634351370000001 6.294881225397555 0.0 3.634351370000001 2.0982937417991856 5.934870934989993" Properties=species:S:1:pos:R:3:spacegroup_kinds:I:1:forces:R:3 spacegroup="P 1" unit_cell=conventional occupancy="_JSON {\"0\": {\"Li\": 1}, \"1\": {\"Li\": 1}, \"2\": {\"Li\": 1}, \"3\": {\"Li\": 1}, \"4\": {\"Li\": 1}, \"5\": {\"Li\": 1}, \"6\": {\"P\": 1}, \"7\": {\"S\": 1}, \"8\": {\"S\": 1}, \"9\": {\"S\": 1}, \"10\": {\"S\": 1}, \"11\": {\"S\": 1}, \"12\": {\"Cl\": 1}}" energy=-53.3634147644043 free_energy=-53.3634147644043 stress="-0.0007942085503600538 -2.4211297500187356e-07 -1.5824335264369438e-07 -2.4211297500187356e-07 -0.0007939477800391614 -1.063171666260132e-07 -1.5824335264369438e-07 -1.063171666260132e-07 -0.0007938978378660977" pbc="T T T"
Li       9.25387995       7.24703237       3.10460814        0       0.00422567      -0.00243427       0.00344807
Li      12.55222827       5.34273008       5.79769826        1      -0.00421121       0.00243304      -0.00344161
Li       9.25387995       5.34273008       5.79769826        2       0.00422563       0.00243952      -0.00344777
Li      12.55222827       7.24703237       3.10460814        3      -0.00421191      -0.00243083       0.00344082
Li      10.90305411       4.39057894       3.10460814        4       0.00000249       0.00487732       0.00344897
Li      10.90305411       8.19918351       5.79769826        5       0.00000187      -0.00486404      -0.00344179
P        7.26870274       4.19658748       2.96743547        6       0.00008591       0.00004589       0.00003676
S        7.26870637       6.13578650       2.28182731        7      -0.00001886      -0.01091069       0.00384753
S        8.94810016       3.22699113       2.28182731        8      -0.00945882       0.00544008       0.00384730
S        5.58931258       3.22699113       2.28182731        9       0.00937779       0.00541321       0.00383024
S        7.26870637       4.19658958       5.02426588       10      -0.00001897      -0.00000999      -0.01156931
S       10.90305411       6.29488123       4.45115320       11      -0.00000122      -0.00000074       0.00000000
Cl       0.00000000       0.00000000       0.00000000       12       0.00000166       0.00000156       0.00000076
